-0.1200000E+01 -0.6209127E-06
-0.1199490E+01 -0.6290266E-06
-0.1198980E+01 -0.6372433E-06
-0.1198470E+01 -0.6455639E-06
-0.1197960E+01 -0.6539898E-06
-0.1197450E+01 -0.6625222E-06
-0.1196940E+01 -0.6711623E-06
-0.1196430E+01 -0.6799114E-06
-0.1195920E+01 -0.6887706E-06
-0.1195410E+01 -0.6977414E-06
-0.1194900E+01 -0.7068250E-06
-0.1194390E+01 -0.7160227E-06
-0.1193880E+01 -0.7253360E-06
-0.1193370E+01 -0.7347661E-06
-0.1192860E+01 -0.7443145E-06
-0.1192350E+01 -0.7539828E-06
-0.1191840E+01 -0.7637722E-06
-0.1191330E+01 -0.7736844E-06
-0.1190820E+01 -0.7837209E-06
-0.1190310E+01 -0.7938833E-06
-0.1189800E+01 -0.8041731E-06
-0.1189290E+01 -0.8145919E-06
-0.1188780E+01 -0.8251413E-06
-0.1188270E+01 -0.8358231E-06
-0.1187760E+01 -0.8466387E-06
-0.1187250E+01 -0.8575899E-06
-0.1186740E+01 -0.8686782E-06
-0.1186230E+01 -0.8799054E-06
-0.1185720E+01 -0.8912730E-06
-0.1185210E+01 -0.9027828E-06
-0.1184700E+01 -0.9144364E-06
-0.1184190E+01 -0.9262354E-06
-0.1183680E+01 -0.9381816E-06
-0.1183170E+01 -0.9502767E-06
-0.1182660E+01 -0.9625224E-06
-0.1182150E+01 -0.9749205E-06
-0.1181640E+01 -0.9874726E-06
-0.1181130E+01 -0.1000181E-05
-0.1180620E+01 -0.1013047E-05
-0.1180110E+01 -0.1026072E-05
-0.1179600E+01 -0.1039259E-05
-0.1179090E+01 -0.1052610E-05
-0.1178580E+01 -0.1066126E-05
-0.1178070E+01 -0.1079810E-05
-0.1177560E+01 -0.1093664E-05
-0.1177050E+01 -0.1107689E-05
-0.1176540E+01 -0.1121888E-05
-0.1176030E+01 -0.1136262E-05
-0.1175520E+01 -0.1150815E-05
-0.1175010E+01 -0.1165548E-05
-0.1174500E+01 -0.1180464E-05
-0.1173990E+01 -0.1195564E-05
-0.1173480E+01 -0.1210851E-05
-0.1172970E+01 -0.1226327E-05
-0.1172460E+01 -0.1241994E-05
-0.1171950E+01 -0.1257854E-05
-0.1171440E+01 -0.1273911E-05
-0.1170930E+01 -0.1290165E-05
-0.1170420E+01 -0.1306619E-05
-0.1169910E+01 -0.1323277E-05
-0.1169400E+01 -0.1340139E-05
-0.1168890E+01 -0.1357208E-05
-0.1168380E+01 -0.1374487E-05
-0.1167870E+01 -0.1391979E-05
-0.1167360E+01 -0.1409685E-05
-0.1166850E+01 -0.1427608E-05
-0.1166340E+01 -0.1445751E-05
-0.1165830E+01 -0.1464116E-05
-0.1165320E+01 -0.1482707E-05
-0.1164810E+01 -0.1501525E-05
-0.1164300E+01 -0.1520574E-05
-0.1163790E+01 -0.1539856E-05
-0.1163280E+01 -0.1559374E-05
-0.1162770E+01 -0.1579131E-05
-0.1162260E+01 -0.1599129E-05
-0.1161750E+01 -0.1619373E-05
-0.1161240E+01 -0.1639863E-05
-0.1160730E+01 -0.1660605E-05
-0.1160220E+01 -0.1681599E-05
-0.1159710E+01 -0.1702850E-05
-0.1159200E+01 -0.1724361E-05
-0.1158690E+01 -0.1746133E-05
-0.1158180E+01 -0.1768172E-05
-0.1157670E+01 -0.1790478E-05
-0.1157160E+01 -0.1813056E-05
-0.1156650E+01 -0.1835909E-05
-0.1156140E+01 -0.1859039E-05
-0.1155630E+01 -0.1882450E-05
-0.1155120E+01 -0.1906146E-05
-0.1154610E+01 -0.1930129E-05
-0.1154100E+01 -0.1954403E-05
-0.1153590E+01 -0.1978971E-05
-0.1153080E+01 -0.2003837E-05
-0.1152570E+01 -0.2029004E-05
-0.1152060E+01 -0.2054476E-05
-0.1151550E+01 -0.2080256E-05
-0.1151040E+01 -0.2106348E-05
-0.1150530E+01 -0.2132756E-05
-0.1150020E+01 -0.2159483E-05
-0.1149510E+01 -0.2186533E-05
-0.1149000E+01 -0.2213911E-05
-0.1148490E+01 -0.2241618E-05
-0.1147980E+01 -0.2269661E-05
-0.1147470E+01 -0.2298042E-05
-0.1146960E+01 -0.2326765E-05
-0.1146450E+01 -0.2355834E-05
-0.1145940E+01 -0.2385254E-05
-0.1145430E+01 -0.2415028E-05
-0.1144920E+01 -0.2445161E-05
-0.1144410E+01 -0.2475656E-05
-0.1143900E+01 -0.2506518E-05
-0.1143390E+01 -0.2537750E-05
-0.1142880E+01 -0.2569358E-05
-0.1142370E+01 -0.2601344E-05
-0.1141860E+01 -0.2633715E-05
-0.1141350E+01 -0.2666474E-05
-0.1140840E+01 -0.2699625E-05
-0.1140330E+01 -0.2733173E-05
-0.1139820E+01 -0.2767123E-05
-0.1139310E+01 -0.2801479E-05
-0.1138800E+01 -0.2836246E-05
-0.1138290E+01 -0.2871429E-05
-0.1137780E+01 -0.2907032E-05
-0.1137270E+01 -0.2943060E-05
-0.1136760E+01 -0.2979519E-05
-0.1136250E+01 -0.3016413E-05
-0.1135740E+01 -0.3053747E-05
-0.1135230E+01 -0.3091527E-05
-0.1134720E+01 -0.3129757E-05
-0.1134210E+01 -0.3168442E-05
-0.1133700E+01 -0.3207589E-05
-0.1133190E+01 -0.3247201E-05
-0.1132680E+01 -0.3287285E-05
-0.1132170E+01 -0.3327845E-05
-0.1131660E+01 -0.3368888E-05
-0.1131150E+01 -0.3410418E-05
-0.1130640E+01 -0.3452442E-05
-0.1130130E+01 -0.3494964E-05
-0.1129620E+01 -0.3537990E-05
-0.1129110E+01 -0.3581527E-05
-0.1128600E+01 -0.3625579E-05
-0.1128090E+01 -0.3670152E-05
-0.1127580E+01 -0.3715253E-05
-0.1127070E+01 -0.3760887E-05
-0.1126560E+01 -0.3807061E-05
-0.1126050E+01 -0.3853781E-05
-0.1125540E+01 -0.3901052E-05
-0.1125030E+01 -0.3948882E-05
-0.1124520E+01 -0.3997276E-05
-0.1124010E+01 -0.4046240E-05
-0.1123500E+01 -0.4095782E-05
-0.1122990E+01 -0.4145908E-05
-0.1122480E+01 -0.4196625E-05
-0.1121970E+01 -0.4247938E-05
-0.1121460E+01 -0.4299856E-05
-0.1120950E+01 -0.4352385E-05
-0.1120440E+01 -0.4405532E-05
-0.1119930E+01 -0.4459303E-05
-0.1119420E+01 -0.4513707E-05
-0.1118910E+01 -0.4568749E-05
-0.1118400E+01 -0.4624438E-05
-0.1117890E+01 -0.4680780E-05
-0.1117380E+01 -0.4737782E-05
-0.1116870E+01 -0.4795452E-05
-0.1116360E+01 -0.4853797E-05
-0.1115850E+01 -0.4912825E-05
-0.1115340E+01 -0.4972544E-05
-0.1114830E+01 -0.5032960E-05
-0.1114320E+01 -0.5094082E-05
-0.1113810E+01 -0.5155918E-05
-0.1113300E+01 -0.5218476E-05
-0.1112790E+01 -0.5281764E-05
-0.1112280E+01 -0.5345789E-05
-0.1111770E+01 -0.5410561E-05
-0.1111260E+01 -0.5476088E-05
-0.1110750E+01 -0.5542377E-05
-0.1110240E+01 -0.5609439E-05
-0.1109730E+01 -0.5677281E-05
-0.1109220E+01 -0.5745912E-05
-0.1108710E+01 -0.5815342E-05
-0.1108200E+01 -0.5885579E-05
-0.1107690E+01 -0.5956631E-05
-0.1107180E+01 -0.6028508E-05
-0.1106670E+01 -0.6101220E-05
-0.1106160E+01 -0.6174775E-05
-0.1105650E+01 -0.6249183E-05
-0.1105140E+01 -0.6324452E-05
-0.1104630E+01 -0.6400594E-05
-0.1104120E+01 -0.6477615E-05
-0.1103610E+01 -0.6555528E-05
-0.1103100E+01 -0.6634341E-05
-0.1102590E+01 -0.6714065E-05
-0.1102080E+01 -0.6794709E-05
-0.1101570E+01 -0.6876284E-05
-0.1101060E+01 -0.6958799E-05
-0.1100550E+01 -0.7042266E-05
-0.1100040E+01 -0.7126694E-05
-0.1099530E+01 -0.7212095E-05
-0.1099020E+01 -0.7298479E-05
-0.1098510E+01 -0.7385856E-05
-0.1098000E+01 -0.7474239E-05
-0.1097490E+01 -0.7563639E-05
-0.1096980E+01 -0.7654065E-05
-0.1096470E+01 -0.7745532E-05
-0.1095960E+01 -0.7838047E-05
-0.1095450E+01 -0.7931625E-05
-0.1094940E+01 -0.8026276E-05
-0.1094430E+01 -0.8122012E-05
-0.1093920E+01 -0.8218845E-05
-0.1093410E+01 -0.8316788E-05
-0.1092900E+01 -0.8415851E-05
-0.1092390E+01 -0.8516047E-05
-0.1091880E+01 -0.8617390E-05
-0.1091370E+01 -0.8719890E-05
-0.1090860E+01 -0.8823560E-05
-0.1090350E+01 -0.8928414E-05
-0.1089840E+01 -0.9034464E-05
-0.1089330E+01 -0.9141723E-05
-0.1088820E+01 -0.9250205E-05
-0.1088310E+01 -0.9359922E-05
-0.1087800E+01 -0.9470888E-05
-0.1087290E+01 -0.9583116E-05
-0.1086780E+01 -0.9696621E-05
-0.1086270E+01 -0.9811417E-05
-0.1085760E+01 -0.9927517E-05
-0.1085250E+01 -0.1004494E-04
-0.1084740E+01 -0.1016369E-04
-0.1084230E+01 -0.1028378E-04
-0.1083720E+01 -0.1040525E-04
-0.1083210E+01 -0.1052808E-04
-0.1082700E+01 -0.1065231E-04
-0.1082190E+01 -0.1077795E-04
-0.1081680E+01 -0.1090501E-04
-0.1081170E+01 -0.1103350E-04
-0.1080660E+01 -0.1116345E-04
-0.1080150E+01 -0.1129487E-04
-0.1079640E+01 -0.1142777E-04
-0.1079130E+01 -0.1156217E-04
-0.1078620E+01 -0.1169809E-04
-0.1078110E+01 -0.1183554E-04
-0.1077600E+01 -0.1197454E-04
-0.1077090E+01 -0.1211510E-04
-0.1076580E+01 -0.1225725E-04
-0.1076070E+01 -0.1240100E-04
-0.1075560E+01 -0.1254636E-04
-0.1075050E+01 -0.1269336E-04
-0.1074540E+01 -0.1284201E-04
-0.1074030E+01 -0.1299233E-04
-0.1073520E+01 -0.1314433E-04
-0.1073010E+01 -0.1329804E-04
-0.1072500E+01 -0.1345347E-04
-0.1071990E+01 -0.1361065E-04
-0.1071480E+01 -0.1376958E-04
-0.1070970E+01 -0.1393029E-04
-0.1070460E+01 -0.1409281E-04
-0.1069950E+01 -0.1425714E-04
-0.1069440E+01 -0.1442330E-04
-0.1068930E+01 -0.1459133E-04
-0.1068420E+01 -0.1476123E-04
-0.1067910E+01 -0.1493302E-04
-0.1067400E+01 -0.1510674E-04
-0.1066890E+01 -0.1528238E-04
-0.1066380E+01 -0.1545999E-04
-0.1065870E+01 -0.1563958E-04
-0.1065360E+01 -0.1582116E-04
-0.1064850E+01 -0.1600476E-04
-0.1064340E+01 -0.1619041E-04
-0.1063830E+01 -0.1637811E-04
-0.1063320E+01 -0.1656790E-04
-0.1062810E+01 -0.1675980E-04
-0.1062300E+01 -0.1695383E-04
-0.1061790E+01 -0.1715001E-04
-0.1061280E+01 -0.1734836E-04
-0.1060770E+01 -0.1754891E-04
-0.1060260E+01 -0.1775168E-04
-0.1059750E+01 -0.1795670E-04
-0.1059240E+01 -0.1816398E-04
-0.1058730E+01 -0.1837355E-04
-0.1058220E+01 -0.1858544E-04
-0.1057710E+01 -0.1879967E-04
-0.1057200E+01 -0.1901626E-04
-0.1056690E+01 -0.1923525E-04
-0.1056180E+01 -0.1945664E-04
-0.1055670E+01 -0.1968048E-04
-0.1055160E+01 -0.1990678E-04
-0.1054650E+01 -0.2013557E-04
-0.1054140E+01 -0.2036688E-04
-0.1053630E+01 -0.2060074E-04
-0.1053120E+01 -0.2083716E-04
-0.1052610E+01 -0.2107618E-04
-0.1052100E+01 -0.2131783E-04
-0.1051590E+01 -0.2156213E-04
-0.1051080E+01 -0.2180910E-04
-0.1050570E+01 -0.2205878E-04
-0.1050060E+01 -0.2231120E-04
-0.1049550E+01 -0.2256638E-04
-0.1049040E+01 -0.2282436E-04
-0.1048530E+01 -0.2308515E-04
-0.1048020E+01 -0.2334880E-04
-0.1047510E+01 -0.2361533E-04
-0.1047000E+01 -0.2388476E-04
-0.1046490E+01 -0.2415714E-04
-0.1045980E+01 -0.2443249E-04
-0.1045470E+01 -0.2471084E-04
-0.1044960E+01 -0.2499222E-04
-0.1044450E+01 -0.2527667E-04
-0.1043940E+01 -0.2556421E-04
-0.1043430E+01 -0.2585488E-04
-0.1042920E+01 -0.2614871E-04
-0.1042410E+01 -0.2644574E-04
-0.1041900E+01 -0.2674599E-04
-0.1041390E+01 -0.2704950E-04
-0.1040880E+01 -0.2735630E-04
-0.1040370E+01 -0.2766644E-04
-0.1039860E+01 -0.2797993E-04
-0.1039350E+01 -0.2829682E-04
-0.1038840E+01 -0.2861714E-04
-0.1038330E+01 -0.2894093E-04
-0.1037820E+01 -0.2926821E-04
-0.1037310E+01 -0.2959904E-04
-0.1036800E+01 -0.2993344E-04
-0.1036290E+01 -0.3027144E-04
-0.1035780E+01 -0.3061310E-04
-0.1035270E+01 -0.3095844E-04
-0.1034760E+01 -0.3130750E-04
-0.1034250E+01 -0.3166032E-04
-0.1033740E+01 -0.3201694E-04
-0.1033230E+01 -0.3237740E-04
-0.1032720E+01 -0.3274174E-04
-0.1032210E+01 -0.3310999E-04
-0.1031700E+01 -0.3348220E-04
-0.1031190E+01 -0.3385841E-04
-0.1030680E+01 -0.3423865E-04
-0.1030170E+01 -0.3462298E-04
-0.1029660E+01 -0.3501142E-04
-0.1029150E+01 -0.3540402E-04
-0.1028640E+01 -0.3580083E-04
-0.1028130E+01 -0.3620188E-04
-0.1027620E+01 -0.3660723E-04
-0.1027110E+01 -0.3701690E-04
-0.1026600E+01 -0.3743096E-04
-0.1026090E+01 -0.3784943E-04
-0.1025580E+01 -0.3827238E-04
-0.1025070E+01 -0.3869983E-04
-0.1024560E+01 -0.3913185E-04
-0.1024050E+01 -0.3956846E-04
-0.1023540E+01 -0.4000973E-04
-0.1023030E+01 -0.4045569E-04
-0.1022520E+01 -0.4090639E-04
-0.1022010E+01 -0.4136189E-04
-0.1021500E+01 -0.4182223E-04
-0.1020990E+01 -0.4228746E-04
-0.1020480E+01 -0.4275763E-04
-0.1019970E+01 -0.4323279E-04
-0.1019460E+01 -0.4371298E-04
-0.1018950E+01 -0.4419827E-04
-0.1018440E+01 -0.4468869E-04
-0.1017930E+01 -0.4518430E-04
-0.1017420E+01 -0.4568516E-04
-0.1016910E+01 -0.4619131E-04
-0.1016400E+01 -0.4670281E-04
-0.1015890E+01 -0.4721971E-04
-0.1015380E+01 -0.4774206E-04
-0.1014870E+01 -0.4826993E-04
-0.1014360E+01 -0.4880335E-04
-0.1013850E+01 -0.4934240E-04
-0.1013340E+01 -0.4988713E-04
-0.1012830E+01 -0.5043759E-04
-0.1012320E+01 -0.5099384E-04
-0.1011810E+01 -0.5155593E-04
-0.1011300E+01 -0.5212394E-04
-0.1010790E+01 -0.5269791E-04
-0.1010280E+01 -0.5327791E-04
-0.1009770E+01 -0.5386399E-04
-0.1009260E+01 -0.5445622E-04
-0.1008750E+01 -0.5505466E-04
-0.1008240E+01 -0.5565936E-04
-0.1007730E+01 -0.5627040E-04
-0.1007220E+01 -0.5688782E-04
-0.1006710E+01 -0.5751170E-04
-0.1006200E+01 -0.5814210E-04
-0.1005690E+01 -0.5877909E-04
-0.1005180E+01 -0.5942272E-04
-0.1004670E+01 -0.6007306E-04
-0.1004160E+01 -0.6073018E-04
-0.1003650E+01 -0.6139414E-04
-0.1003140E+01 -0.6206502E-04
-0.1002630E+01 -0.6274289E-04
-0.1002120E+01 -0.6342780E-04
-0.1001610E+01 -0.6411983E-04
-0.1001100E+01 -0.6481905E-04
-0.1000590E+01 -0.6552554E-04
-0.1000080E+01 -0.6623935E-04
-0.9995700E+00 -0.6696057E-04
-0.9990600E+00 -0.6768927E-04
-0.9985500E+00 -0.6842551E-04
-0.9980400E+00 -0.6916939E-04
-0.9975300E+00 -0.6992096E-04
-0.9970200E+00 -0.7068030E-04
-0.9965100E+00 -0.7144750E-04
-0.9960000E+00 -0.7222262E-04
-0.9954900E+00 -0.7300574E-04
-0.9949800E+00 -0.7379695E-04
-0.9944700E+00 -0.7459631E-04
-0.9939600E+00 -0.7540391E-04
-0.9934500E+00 -0.7621983E-04
-0.9929400E+00 -0.7704415E-04
-0.9924300E+00 -0.7787695E-04
-0.9919200E+00 -0.7871831E-04
-0.9914100E+00 -0.7956832E-04
-0.9909000E+00 -0.8042705E-04
-0.9903900E+00 -0.8129459E-04
-0.9898800E+00 -0.8217104E-04
-0.9893700E+00 -0.8305647E-04
-0.9888600E+00 -0.8395098E-04
-0.9883500E+00 -0.8485466E-04
-0.9878400E+00 -0.8576758E-04
-0.9873300E+00 -0.8668984E-04
-0.9868200E+00 -0.8762153E-04
-0.9863100E+00 -0.8856275E-04
-0.9858000E+00 -0.8951357E-04
-0.9852900E+00 -0.9047410E-04
-0.9847800E+00 -0.9144442E-04
-0.9842700E+00 -0.9242465E-04
-0.9837600E+00 -0.9341486E-04
-0.9832500E+00 -0.9441515E-04
-0.9827400E+00 -0.9542562E-04
-0.9822300E+00 -0.9644636E-04
-0.9817200E+00 -0.9747748E-04
-0.9812100E+00 -0.9851907E-04
-0.9807000E+00 -0.9957124E-04
-0.9801900E+00 -0.1006341E-03
-0.9796800E+00 -0.1017077E-03
-0.9791700E+00 -0.1027922E-03
-0.9786600E+00 -0.1038877E-03
-0.9781500E+00 -0.1049942E-03
-0.9776400E+00 -0.1061120E-03
-0.9771300E+00 -0.1072411E-03
-0.9766200E+00 -0.1083815E-03
-0.9761100E+00 -0.1095335E-03
-0.9756000E+00 -0.1106971E-03
-0.9750900E+00 -0.1118725E-03
-0.9745800E+00 -0.1130597E-03
-0.9740700E+00 -0.1142588E-03
-0.9735600E+00 -0.1154701E-03
-0.9730500E+00 -0.1166935E-03
-0.9725400E+00 -0.1179292E-03
-0.9720300E+00 -0.1191774E-03
-0.9715200E+00 -0.1204381E-03
-0.9710100E+00 -0.1217114E-03
-0.9705000E+00 -0.1229975E-03
-0.9699900E+00 -0.1242966E-03
-0.9694800E+00 -0.1256086E-03
-0.9689700E+00 -0.1269338E-03
-0.9684600E+00 -0.1282722E-03
-0.9679500E+00 -0.1296240E-03
-0.9674400E+00 -0.1309894E-03
-0.9669300E+00 -0.1323684E-03
-0.9664200E+00 -0.1337611E-03
-0.9659100E+00 -0.1351677E-03
-0.9654000E+00 -0.1365884E-03
-0.9648900E+00 -0.1380233E-03
-0.9643800E+00 -0.1394724E-03
-0.9638700E+00 -0.1409360E-03
-0.9633600E+00 -0.1424141E-03
-0.9628500E+00 -0.1439069E-03
-0.9623400E+00 -0.1454145E-03
-0.9618300E+00 -0.1469371E-03
-0.9613200E+00 -0.1484749E-03
-0.9608100E+00 -0.1500279E-03
-0.9603000E+00 -0.1515962E-03
-0.9597900E+00 -0.1531802E-03
-0.9592800E+00 -0.1547797E-03
-0.9587700E+00 -0.1563952E-03
-0.9582600E+00 -0.1580266E-03
-0.9577500E+00 -0.1596741E-03
-0.9572400E+00 -0.1613379E-03
-0.9567300E+00 -0.1630181E-03
-0.9562200E+00 -0.1647149E-03
-0.9557100E+00 -0.1664285E-03
-0.9552000E+00 -0.1681589E-03
-0.9546900E+00 -0.1699064E-03
-0.9541800E+00 -0.1716710E-03
-0.9536700E+00 -0.1734531E-03
-0.9531600E+00 -0.1752526E-03
-0.9526500E+00 -0.1770698E-03
-0.9521400E+00 -0.1789049E-03
-0.9516300E+00 -0.1807579E-03
-0.9511200E+00 -0.1826292E-03
-0.9506100E+00 -0.1845187E-03
-0.9501000E+00 -0.1864268E-03
-0.9495900E+00 -0.1883535E-03
-0.9490800E+00 -0.1902991E-03
-0.9485700E+00 -0.1922637E-03
-0.9480600E+00 -0.1942475E-03
-0.9475500E+00 -0.1962506E-03
-0.9470400E+00 -0.1982733E-03
-0.9465300E+00 -0.2003158E-03
-0.9460200E+00 -0.2023781E-03
-0.9455100E+00 -0.2044605E-03
-0.9450000E+00 -0.2065632E-03
-0.9444900E+00 -0.2086864E-03
-0.9439800E+00 -0.2108302E-03
-0.9434700E+00 -0.2129948E-03
-0.9429600E+00 -0.2151805E-03
-0.9424500E+00 -0.2173873E-03
-0.9419400E+00 -0.2196156E-03
-0.9414300E+00 -0.2218654E-03
-0.9409200E+00 -0.2241371E-03
-0.9404100E+00 -0.2264307E-03
-0.9399000E+00 -0.2287465E-03
-0.9393900E+00 -0.2310847E-03
-0.9388800E+00 -0.2334455E-03
-0.9383700E+00 -0.2358290E-03
-0.9378600E+00 -0.2382356E-03
-0.9373500E+00 -0.2406654E-03
-0.9368400E+00 -0.2431185E-03
-0.9363300E+00 -0.2455954E-03
-0.9358200E+00 -0.2480960E-03
-0.9353100E+00 -0.2506207E-03
-0.9348000E+00 -0.2531696E-03
-0.9342900E+00 -0.2557430E-03
-0.9337800E+00 -0.2583412E-03
-0.9332700E+00 -0.2609643E-03
-0.9327600E+00 -0.2636125E-03
-0.9322500E+00 -0.2662862E-03
-0.9317400E+00 -0.2689854E-03
-0.9312300E+00 -0.2717105E-03
-0.9307200E+00 -0.2744616E-03
-0.9302100E+00 -0.2772390E-03
-0.9297000E+00 -0.2800430E-03
-0.9291900E+00 -0.2828737E-03
-0.9286800E+00 -0.2857315E-03
-0.9281700E+00 -0.2886164E-03
-0.9276600E+00 -0.2915289E-03
-0.9271500E+00 -0.2944691E-03
-0.9266400E+00 -0.2974372E-03
-0.9261300E+00 -0.3004336E-03
-0.9256200E+00 -0.3034585E-03
-0.9251100E+00 -0.3065120E-03
-0.9246000E+00 -0.3095946E-03
-0.9240900E+00 -0.3127064E-03
-0.9235800E+00 -0.3158477E-03
-0.9230700E+00 -0.3190187E-03
-0.9225600E+00 -0.3222198E-03
-0.9220500E+00 -0.3254511E-03
-0.9215400E+00 -0.3287131E-03
-0.9210300E+00 -0.3320058E-03
-0.9205200E+00 -0.3353297E-03
-0.9200100E+00 -0.3386849E-03
-0.9195000E+00 -0.3420718E-03
-0.9189900E+00 -0.3454906E-03
-0.9184800E+00 -0.3489417E-03
-0.9179700E+00 -0.3524252E-03
-0.9174600E+00 -0.3559415E-03
-0.9169500E+00 -0.3594909E-03
-0.9164400E+00 -0.3630735E-03
-0.9159300E+00 -0.3666899E-03
-0.9154200E+00 -0.3703401E-03
-0.9149100E+00 -0.3740246E-03
-0.9144000E+00 -0.3777435E-03
-0.9138900E+00 -0.3814973E-03
-0.9133800E+00 -0.3852863E-03
-0.9128700E+00 -0.3891106E-03
-0.9123600E+00 -0.3929707E-03
-0.9118500E+00 -0.3968669E-03
-0.9113400E+00 -0.4007994E-03
-0.9108300E+00 -0.4047686E-03
-0.9103200E+00 -0.4087748E-03
-0.9098100E+00 -0.4128183E-03
-0.9093000E+00 -0.4168995E-03
-0.9087900E+00 -0.4210186E-03
-0.9082800E+00 -0.4251761E-03
-0.9077700E+00 -0.4293722E-03
-0.9072600E+00 -0.4336072E-03
-0.9067500E+00 -0.4378816E-03
-0.9062400E+00 -0.4421956E-03
-0.9057300E+00 -0.4465495E-03
-0.9052200E+00 -0.4509438E-03
-0.9047100E+00 -0.4553788E-03
-0.9042000E+00 -0.4598548E-03
-0.9036900E+00 -0.4643721E-03
-0.9031800E+00 -0.4689311E-03
-0.9026700E+00 -0.4735322E-03
-0.9021600E+00 -0.4781758E-03
-0.9016500E+00 -0.4828621E-03
-0.9011400E+00 -0.4875917E-03
-0.9006300E+00 -0.4923648E-03
-0.9001200E+00 -0.4971817E-03
-0.8996100E+00 -0.5020430E-03
-0.8991000E+00 -0.5069489E-03
-0.8985900E+00 -0.5118999E-03
-0.8980800E+00 -0.5168963E-03
-0.8975700E+00 -0.5219385E-03
-0.8970600E+00 -0.5270269E-03
-0.8965500E+00 -0.5321620E-03
-0.8960400E+00 -0.5373440E-03
-0.8955300E+00 -0.5425735E-03
-0.8950200E+00 -0.5478507E-03
-0.8945100E+00 -0.5531761E-03
-0.8940000E+00 -0.5585501E-03
-0.8934900E+00 -0.5639732E-03
-0.8929800E+00 -0.5694456E-03
-0.8924700E+00 -0.5749679E-03
-0.8919600E+00 -0.5805405E-03
-0.8914500E+00 -0.5861637E-03
-0.8909400E+00 -0.5918380E-03
-0.8904300E+00 -0.5975639E-03
-0.8899200E+00 -0.6033417E-03
-0.8894100E+00 -0.6091719E-03
-0.8889000E+00 -0.6150550E-03
-0.8883900E+00 -0.6209914E-03
-0.8878800E+00 -0.6269815E-03
-0.8873700E+00 -0.6330258E-03
-0.8868600E+00 -0.6391247E-03
-0.8863500E+00 -0.6452788E-03
-0.8858400E+00 -0.6514884E-03
-0.8853300E+00 -0.6577541E-03
-0.8848200E+00 -0.6640762E-03
-0.8843100E+00 -0.6704554E-03
-0.8838000E+00 -0.6768920E-03
-0.8832900E+00 -0.6833865E-03
-0.8827800E+00 -0.6899395E-03
-0.8822700E+00 -0.6965513E-03
-0.8817600E+00 -0.7032225E-03
-0.8812500E+00 -0.7099535E-03
-0.8807400E+00 -0.7167450E-03
-0.8802300E+00 -0.7235972E-03
-0.8797200E+00 -0.7305109E-03
-0.8792100E+00 -0.7374863E-03
-0.8787000E+00 -0.7445241E-03
-0.8781900E+00 -0.7516248E-03
-0.8776800E+00 -0.7587888E-03
-0.8771700E+00 -0.7660168E-03
-0.8766600E+00 -0.7733093E-03
-0.8761500E+00 -0.7806667E-03
-0.8756400E+00 -0.7880895E-03
-0.8751300E+00 -0.7955785E-03
-0.8746200E+00 -0.8031341E-03
-0.8741100E+00 -0.8107568E-03
-0.8736000E+00 -0.8184472E-03
-0.8730900E+00 -0.8262059E-03
-0.8725800E+00 -0.8340334E-03
-0.8720700E+00 -0.8419303E-03
-0.8715600E+00 -0.8498972E-03
-0.8710500E+00 -0.8579346E-03
-0.8705400E+00 -0.8660431E-03
-0.8700300E+00 -0.8742232E-03
-0.8695200E+00 -0.8824756E-03
-0.8690100E+00 -0.8908008E-03
-0.8685000E+00 -0.8991995E-03
-0.8679900E+00 -0.9076720E-03
-0.8674800E+00 -0.9162192E-03
-0.8669700E+00 -0.9248416E-03
-0.8664600E+00 -0.9335397E-03
-0.8659500E+00 -0.9423143E-03
-0.8654400E+00 -0.9511659E-03
-0.8649300E+00 -0.9600952E-03
-0.8644200E+00 -0.9691028E-03
-0.8639100E+00 -0.9781893E-03
-0.8634000E+00 -0.9873554E-03
-0.8628900E+00 -0.9966017E-03
-0.8623800E+00 -0.1005929E-02
-0.8618700E+00 -0.1015338E-02
-0.8613600E+00 -0.1024829E-02
-0.8608500E+00 -0.1034402E-02
-0.8603400E+00 -0.1044060E-02
-0.8598300E+00 -0.1053801E-02
-0.8593200E+00 -0.1063628E-02
-0.8588100E+00 -0.1073539E-02
-0.8583000E+00 -0.1083537E-02
-0.8577900E+00 -0.1093622E-02
-0.8572800E+00 -0.1103795E-02
-0.8567700E+00 -0.1114055E-02
-0.8562600E+00 -0.1124405E-02
-0.8557500E+00 -0.1134844E-02
-0.8552400E+00 -0.1145374E-02
-0.8547300E+00 -0.1155994E-02
-0.8542200E+00 -0.1166706E-02
-0.8537100E+00 -0.1177511E-02
-0.8532000E+00 -0.1188409E-02
-0.8526900E+00 -0.1199401E-02
-0.8521800E+00 -0.1210488E-02
-0.8516700E+00 -0.1221671E-02
-0.8511600E+00 -0.1232949E-02
-0.8506500E+00 -0.1244325E-02
-0.8501400E+00 -0.1255798E-02
-0.8496300E+00 -0.1267370E-02
-0.8491200E+00 -0.1279041E-02
-0.8486100E+00 -0.1290813E-02
-0.8481000E+00 -0.1302685E-02
-0.8475900E+00 -0.1314659E-02
-0.8470800E+00 -0.1326735E-02
-0.8465700E+00 -0.1338915E-02
-0.8460600E+00 -0.1351199E-02
-0.8455500E+00 -0.1363588E-02
-0.8450400E+00 -0.1376082E-02
-0.8445300E+00 -0.1388683E-02
-0.8440200E+00 -0.1401391E-02
-0.8435100E+00 -0.1414208E-02
-0.8430000E+00 -0.1427133E-02
-0.8424900E+00 -0.1440169E-02
-0.8419800E+00 -0.1453315E-02
-0.8414700E+00 -0.1466572E-02
-0.8409600E+00 -0.1479942E-02
-0.8404500E+00 -0.1493425E-02
-0.8399400E+00 -0.1507022E-02
-0.8394300E+00 -0.1520735E-02
-0.8389200E+00 -0.1534563E-02
-0.8384100E+00 -0.1548509E-02
-0.8379000E+00 -0.1562572E-02
-0.8373900E+00 -0.1576753E-02
-0.8368800E+00 -0.1591055E-02
-0.8363700E+00 -0.1605477E-02
-0.8358600E+00 -0.1620020E-02
-0.8353500E+00 -0.1634686E-02
-0.8348400E+00 -0.1649475E-02
-0.8343300E+00 -0.1664389E-02
-0.8338200E+00 -0.1679427E-02
-0.8333100E+00 -0.1694592E-02
-0.8328000E+00 -0.1709884E-02
-0.8322900E+00 -0.1725304E-02
-0.8317800E+00 -0.1740853E-02
-0.8312700E+00 -0.1756532E-02
-0.8307600E+00 -0.1772342E-02
-0.8302500E+00 -0.1788284E-02
-0.8297400E+00 -0.1804359E-02
-0.8292300E+00 -0.1820568E-02
-0.8287200E+00 -0.1836912E-02
-0.8282100E+00 -0.1853392E-02
-0.8277000E+00 -0.1870009E-02
-0.8271900E+00 -0.1886764E-02
-0.8266800E+00 -0.1903658E-02
-0.8261700E+00 -0.1920693E-02
-0.8256600E+00 -0.1937868E-02
-0.8251500E+00 -0.1955186E-02
-0.8246400E+00 -0.1972648E-02
-0.8241300E+00 -0.1990254E-02
-0.8236200E+00 -0.2008006E-02
-0.8231100E+00 -0.2025905E-02
-0.8226000E+00 -0.2043951E-02
-0.8220900E+00 -0.2062146E-02
-0.8215800E+00 -0.2080492E-02
-0.8210700E+00 -0.2098988E-02
-0.8205600E+00 -0.2117636E-02
-0.8200500E+00 -0.2136438E-02
-0.8195400E+00 -0.2155395E-02
-0.8190300E+00 -0.2174507E-02
-0.8185200E+00 -0.2193776E-02
-0.8180100E+00 -0.2213203E-02
-0.8175000E+00 -0.2232789E-02
-0.8169900E+00 -0.2252535E-02
-0.8164800E+00 -0.2272443E-02
-0.8159700E+00 -0.2292514E-02
-0.8154600E+00 -0.2312748E-02
-0.8149500E+00 -0.2333147E-02
-0.8144400E+00 -0.2353713E-02
-0.8139300E+00 -0.2374446E-02
-0.8134200E+00 -0.2395349E-02
-0.8129100E+00 -0.2416421E-02
-0.8124000E+00 -0.2437664E-02
-0.8118900E+00 -0.2459081E-02
-0.8113800E+00 -0.2480671E-02
-0.8108700E+00 -0.2502436E-02
-0.8103600E+00 -0.2524378E-02
-0.8098500E+00 -0.2546497E-02
-0.8093400E+00 -0.2568795E-02
-0.8088300E+00 -0.2591274E-02
-0.8083200E+00 -0.2613934E-02
-0.8078100E+00 -0.2636777E-02
-0.8073000E+00 -0.2659804E-02
-0.8067900E+00 -0.2683017E-02
-0.8062800E+00 -0.2706417E-02
-0.8057700E+00 -0.2730005E-02
-0.8052600E+00 -0.2753783E-02
-0.8047500E+00 -0.2777751E-02
-0.8042400E+00 -0.2801912E-02
-0.8037300E+00 -0.2826267E-02
-0.8032200E+00 -0.2850817E-02
-0.8027100E+00 -0.2875563E-02
-0.8022000E+00 -0.2900508E-02
-0.8016900E+00 -0.2925652E-02
-0.8011800E+00 -0.2950997E-02
-0.8006700E+00 -0.2976544E-02
-0.8001600E+00 -0.3002295E-02
-0.7996500E+00 -0.3028251E-02
-0.7991400E+00 -0.3054414E-02
-0.7986300E+00 -0.3080785E-02
-0.7981200E+00 -0.3107366E-02
-0.7976100E+00 -0.3134158E-02
-0.7971000E+00 -0.3161163E-02
-0.7965900E+00 -0.3188382E-02
-0.7960800E+00 -0.3215817E-02
-0.7955700E+00 -0.3243469E-02
-0.7950600E+00 -0.3271339E-02
-0.7945500E+00 -0.3299430E-02
-0.7940400E+00 -0.3327743E-02
-0.7935300E+00 -0.3356280E-02
-0.7930200E+00 -0.3385041E-02
-0.7925100E+00 -0.3414029E-02
-0.7920000E+00 -0.3443246E-02
-0.7914900E+00 -0.3472692E-02
-0.7909800E+00 -0.3502370E-02
-0.7904700E+00 -0.3532281E-02
-0.7899600E+00 -0.3562426E-02
-0.7894500E+00 -0.3592808E-02
-0.7889400E+00 -0.3623428E-02
-0.7884300E+00 -0.3654287E-02
-0.7879200E+00 -0.3685388E-02
-0.7874100E+00 -0.3716733E-02
-0.7869000E+00 -0.3748321E-02
-0.7863900E+00 -0.3780157E-02
-0.7858800E+00 -0.3812240E-02
-0.7853700E+00 -0.3844574E-02
-0.7848600E+00 -0.3877159E-02
-0.7843500E+00 -0.3909998E-02
-0.7838400E+00 -0.3943092E-02
-0.7833300E+00 -0.3976443E-02
-0.7828200E+00 -0.4010053E-02
-0.7823100E+00 -0.4043924E-02
-0.7818000E+00 -0.4078057E-02
-0.7812900E+00 -0.4112454E-02
-0.7807800E+00 -0.4147117E-02
-0.7802700E+00 -0.4182047E-02
-0.7797600E+00 -0.4217247E-02
-0.7792500E+00 -0.4252719E-02
-0.7787400E+00 -0.4288464E-02
-0.7782300E+00 -0.4324485E-02
-0.7777200E+00 -0.4360782E-02
-0.7772100E+00 -0.4397358E-02
-0.7767000E+00 -0.4434216E-02
-0.7761900E+00 -0.4471356E-02
-0.7756800E+00 -0.4508781E-02
-0.7751700E+00 -0.4546493E-02
-0.7746600E+00 -0.4584494E-02
-0.7741500E+00 -0.4622785E-02
-0.7736400E+00 -0.4661370E-02
-0.7731300E+00 -0.4700248E-02
-0.7726200E+00 -0.4739423E-02
-0.7721100E+00 -0.4778897E-02
-0.7716000E+00 -0.4818672E-02
-0.7710900E+00 -0.4858749E-02
-0.7705800E+00 -0.4899131E-02
-0.7700700E+00 -0.4939819E-02
-0.7695600E+00 -0.4980817E-02
-0.7690500E+00 -0.5022124E-02
-0.7685400E+00 -0.5063745E-02
-0.7680300E+00 -0.5105681E-02
-0.7675200E+00 -0.5147934E-02
-0.7670100E+00 -0.5190506E-02
-0.7665000E+00 -0.5233400E-02
-0.7659900E+00 -0.5276618E-02
-0.7654800E+00 -0.5320161E-02
-0.7649700E+00 -0.5364032E-02
-0.7644600E+00 -0.5408233E-02
-0.7639500E+00 -0.5452767E-02
-0.7634400E+00 -0.5497636E-02
-0.7629300E+00 -0.5542841E-02
-0.7624200E+00 -0.5588386E-02
-0.7619100E+00 -0.5634272E-02
-0.7614000E+00 -0.5680501E-02
-0.7608900E+00 -0.5727076E-02
-0.7603800E+00 -0.5773998E-02
-0.7598700E+00 -0.5821271E-02
-0.7593600E+00 -0.5868897E-02
-0.7588500E+00 -0.5916878E-02
-0.7583400E+00 -0.5965216E-02
-0.7578300E+00 -0.6013913E-02
-0.7573200E+00 -0.6062972E-02
-0.7568100E+00 -0.6112396E-02
-0.7563000E+00 -0.6162186E-02
-0.7557900E+00 -0.6212345E-02
-0.7552800E+00 -0.6262876E-02
-0.7547700E+00 -0.6313781E-02
-0.7542600E+00 -0.6365062E-02
-0.7537500E+00 -0.6416723E-02
-0.7532400E+00 -0.6468765E-02
-0.7527300E+00 -0.6521191E-02
-0.7522200E+00 -0.6574003E-02
-0.7517100E+00 -0.6627203E-02
-0.7512000E+00 -0.6680796E-02
-0.7506900E+00 -0.6734782E-02
-0.7501800E+00 -0.6789165E-02
-0.7496700E+00 -0.6843947E-02
-0.7491600E+00 -0.6899130E-02
-0.7486500E+00 -0.6954717E-02
-0.7481400E+00 -0.7010710E-02
-0.7476300E+00 -0.7067113E-02
-0.7471200E+00 -0.7123928E-02
-0.7466100E+00 -0.7181156E-02
-0.7461000E+00 -0.7238802E-02
-0.7455900E+00 -0.7296868E-02
-0.7450800E+00 -0.7355355E-02
-0.7445700E+00 -0.7414268E-02
-0.7440600E+00 -0.7473608E-02
-0.7435500E+00 -0.7533379E-02
-0.7430400E+00 -0.7593584E-02
-0.7425300E+00 -0.7654224E-02
-0.7420200E+00 -0.7715303E-02
-0.7415100E+00 -0.7776824E-02
-0.7410000E+00 -0.7838789E-02
-0.7404900E+00 -0.7901202E-02
-0.7399800E+00 -0.7964065E-02
-0.7394700E+00 -0.8027381E-02
-0.7389600E+00 -0.8091153E-02
-0.7384500E+00 -0.8155383E-02
-0.7379400E+00 -0.8220075E-02
-0.7374300E+00 -0.8285230E-02
-0.7369200E+00 -0.8350853E-02
-0.7364100E+00 -0.8416945E-02
-0.7359000E+00 -0.8483510E-02
-0.7353900E+00 -0.8550552E-02
-0.7348800E+00 -0.8618072E-02
-0.7343700E+00 -0.8686074E-02
-0.7338600E+00 -0.8754561E-02
-0.7333500E+00 -0.8823535E-02
-0.7328400E+00 -0.8893001E-02
-0.7323300E+00 -0.8962960E-02
-0.7318200E+00 -0.9033416E-02
-0.7313100E+00 -0.9104373E-02
-0.7308000E+00 -0.9175832E-02
-0.7302900E+00 -0.9247798E-02
-0.7297800E+00 -0.9320274E-02
-0.7292700E+00 -0.9393262E-02
-0.7287600E+00 -0.9466765E-02
-0.7282500E+00 -0.9540788E-02
-0.7277400E+00 -0.9615333E-02
-0.7272300E+00 -0.9690403E-02
-0.7267200E+00 -0.9766001E-02
-0.7262100E+00 -0.9842130E-02
-0.7257000E+00 -0.9918794E-02
-0.7251900E+00 -0.9995996E-02
-0.7246800E+00 -0.1007374E-01
-0.7241700E+00 -0.1015203E-01
-0.7236600E+00 -0.1023086E-01
-0.7231500E+00 -0.1031025E-01
-0.7226400E+00 -0.1039018E-01
-0.7221300E+00 -0.1047068E-01
-0.7216200E+00 -0.1055174E-01
-0.7211100E+00 -0.1063336E-01
-0.7206000E+00 -0.1071555E-01
-0.7200900E+00 -0.1079831E-01
-0.7195800E+00 -0.1088164E-01
-0.7190700E+00 -0.1096556E-01
-0.7185600E+00 -0.1105005E-01
-0.7180500E+00 -0.1113513E-01
-0.7175400E+00 -0.1122080E-01
-0.7170300E+00 -0.1130706E-01
-0.7165200E+00 -0.1139392E-01
-0.7160100E+00 -0.1148137E-01
-0.7155000E+00 -0.1156943E-01
-0.7149900E+00 -0.1165809E-01
-0.7144800E+00 -0.1174737E-01
-0.7139700E+00 -0.1183726E-01
-0.7134600E+00 -0.1192776E-01
-0.7129500E+00 -0.1201888E-01
-0.7124400E+00 -0.1211063E-01
-0.7119300E+00 -0.1220301E-01
-0.7114200E+00 -0.1229601E-01
-0.7109100E+00 -0.1238966E-01
-0.7104000E+00 -0.1248394E-01
-0.7098900E+00 -0.1257886E-01
-0.7093800E+00 -0.1267443E-01
-0.7088700E+00 -0.1277065E-01
-0.7083600E+00 -0.1286752E-01
-0.7078500E+00 -0.1296505E-01
-0.7073400E+00 -0.1306324E-01
-0.7068300E+00 -0.1316210E-01
-0.7063200E+00 -0.1326162E-01
-0.7058100E+00 -0.1336182E-01
-0.7053000E+00 -0.1346269E-01
-0.7047900E+00 -0.1356425E-01
-0.7042800E+00 -0.1366649E-01
-0.7037700E+00 -0.1376942E-01
-0.7032600E+00 -0.1387304E-01
-0.7027500E+00 -0.1397736E-01
-0.7022400E+00 -0.1408237E-01
-0.7017300E+00 -0.1418810E-01
-0.7012200E+00 -0.1429453E-01
-0.7007100E+00 -0.1440167E-01
-0.7002000E+00 -0.1450953E-01
-0.6996900E+00 -0.1461811E-01
-0.6991800E+00 -0.1472741E-01
-0.6986700E+00 -0.1483744E-01
-0.6981600E+00 -0.1494821E-01
-0.6976500E+00 -0.1505971E-01
-0.6971400E+00 -0.1517195E-01
-0.6966300E+00 -0.1528493E-01
-0.6961200E+00 -0.1539867E-01
-0.6956100E+00 -0.1551315E-01
-0.6951000E+00 -0.1562840E-01
-0.6945900E+00 -0.1574441E-01
-0.6940800E+00 -0.1586118E-01
-0.6935700E+00 -0.1597872E-01
-0.6930600E+00 -0.1609704E-01
-0.6925500E+00 -0.1621614E-01
-0.6920400E+00 -0.1633602E-01
-0.6915300E+00 -0.1645669E-01
-0.6910200E+00 -0.1657815E-01
-0.6905100E+00 -0.1670040E-01