-0.1200000E+01  0.0000000E+00
-0.1199490E+01  0.0000000E+00
-0.1198980E+01  0.0000000E+00
-0.1198470E+01  0.0000000E+00
-0.1197960E+01  0.0000000E+00
-0.1197450E+01  0.0000000E+00
-0.1196940E+01  0.0000000E+00
-0.1196430E+01  0.0000000E+00
-0.1195920E+01  0.0000000E+00
-0.1195410E+01  0.0000000E+00
-0.1194900E+01  0.0000000E+00
-0.1194390E+01  0.0000000E+00
-0.1193880E+01  0.0000000E+00
-0.1193370E+01  0.0000000E+00
-0.1192860E+01  0.0000000E+00
-0.1192350E+01  0.0000000E+00
-0.1191840E+01  0.0000000E+00
-0.1191330E+01  0.0000000E+00
-0.1190820E+01  0.0000000E+00
-0.1190310E+01  0.0000000E+00
-0.1189800E+01  0.0000000E+00
-0.1189290E+01  0.0000000E+00
-0.1188780E+01  0.0000000E+00
-0.1188270E+01  0.0000000E+00
-0.1187760E+01  0.0000000E+00
-0.1187250E+01  0.0000000E+00
-0.1186740E+01  0.0000000E+00
-0.1186230E+01  0.0000000E+00
-0.1185720E+01  0.0000000E+00
-0.1185210E+01  0.0000000E+00
-0.1184700E+01  0.0000000E+00
-0.1184190E+01  0.0000000E+00
-0.1183680E+01  0.0000000E+00
-0.1183170E+01  0.0000000E+00
-0.1182660E+01  0.0000000E+00
-0.1182150E+01  0.0000000E+00
-0.1181640E+01  0.0000000E+00
-0.1181130E+01  0.0000000E+00
-0.1180620E+01  0.0000000E+00
-0.1180110E+01  0.0000000E+00
-0.1179600E+01  0.0000000E+00
-0.1179090E+01  0.0000000E+00
-0.1178580E+01  0.0000000E+00
-0.1178070E+01  0.0000000E+00
-0.1177560E+01  0.0000000E+00
-0.1177050E+01  0.0000000E+00
-0.1176540E+01  0.0000000E+00
-0.1176030E+01  0.0000000E+00
-0.1175520E+01  0.0000000E+00
-0.1175010E+01  0.0000000E+00
-0.1174500E+01  0.0000000E+00
-0.1173990E+01  0.0000000E+00
-0.1173480E+01  0.0000000E+00
-0.1172970E+01  0.0000000E+00
-0.1172460E+01  0.0000000E+00
-0.1171950E+01  0.0000000E+00
-0.1171440E+01  0.0000000E+00
-0.1170930E+01  0.0000000E+00
-0.1170420E+01  0.0000000E+00
-0.1169910E+01  0.0000000E+00
-0.1169400E+01  0.0000000E+00
-0.1168890E+01  0.0000000E+00
-0.1168380E+01  0.0000000E+00
-0.1167870E+01  0.0000000E+00
-0.1167360E+01  0.0000000E+00
-0.1166850E+01  0.0000000E+00
-0.1166340E+01  0.0000000E+00
-0.1165830E+01  0.0000000E+00
-0.1165320E+01  0.0000000E+00
-0.1164810E+01  0.0000000E+00
-0.1164300E+01  0.0000000E+00
-0.1163790E+01  0.0000000E+00
-0.1163280E+01  0.0000000E+00
-0.1162770E+01  0.0000000E+00
-0.1162260E+01  0.0000000E+00
-0.1161750E+01  0.0000000E+00
-0.1161240E+01  0.0000000E+00
-0.1160730E+01  0.0000000E+00
-0.1160220E+01  0.0000000E+00
-0.1159710E+01  0.0000000E+00
-0.1159200E+01  0.0000000E+00
-0.1158690E+01  0.0000000E+00
-0.1158180E+01  0.0000000E+00
-0.1157670E+01  0.0000000E+00
-0.1157160E+01  0.0000000E+00
-0.1156650E+01  0.0000000E+00
-0.1156140E+01  0.0000000E+00
-0.1155630E+01  0.0000000E+00
-0.1155120E+01  0.0000000E+00
-0.1154610E+01  0.0000000E+00
-0.1154100E+01  0.0000000E+00
-0.1153590E+01  0.0000000E+00
-0.1153080E+01  0.0000000E+00
-0.1152570E+01  0.0000000E+00
-0.1152060E+01  0.0000000E+00
-0.1151550E+01  0.0000000E+00
-0.1151040E+01  0.0000000E+00
-0.1150530E+01  0.0000000E+00
-0.1150020E+01  0.0000000E+00
-0.1149510E+01  0.0000000E+00
-0.1149000E+01  0.0000000E+00
-0.1148490E+01  0.0000000E+00
-0.1147980E+01  0.0000000E+00
-0.1147470E+01  0.0000000E+00
-0.1146960E+01  0.0000000E+00
-0.1146450E+01  0.0000000E+00
-0.1145940E+01  0.0000000E+00
-0.1145430E+01  0.0000000E+00
-0.1144920E+01  0.0000000E+00
-0.1144410E+01  0.0000000E+00
-0.1143900E+01  0.0000000E+00
-0.1143390E+01  0.0000000E+00
-0.1142880E+01  0.0000000E+00
-0.1142370E+01  0.0000000E+00
-0.1141860E+01  0.0000000E+00
-0.1141350E+01  0.0000000E+00
-0.1140840E+01  0.0000000E+00
-0.1140330E+01  0.0000000E+00
-0.1139820E+01  0.0000000E+00
-0.1139310E+01  0.0000000E+00
-0.1138800E+01  0.0000000E+00
-0.1138290E+01  0.0000000E+00
-0.1137780E+01  0.0000000E+00
-0.1137270E+01  0.0000000E+00
-0.1136760E+01  0.0000000E+00
-0.1136250E+01  0.0000000E+00
-0.1135740E+01  0.0000000E+00
-0.1135230E+01  0.0000000E+00
-0.1134720E+01  0.0000000E+00
-0.1134210E+01  0.0000000E+00
-0.1133700E+01  0.0000000E+00
-0.1133190E+01  0.0000000E+00
-0.1132680E+01  0.0000000E+00
-0.1132170E+01  0.0000000E+00
-0.1131660E+01  0.0000000E+00
-0.1131150E+01  0.0000000E+00
-0.1130640E+01  0.0000000E+00
-0.1130130E+01  0.0000000E+00
-0.1129620E+01  0.0000000E+00
-0.1129110E+01  0.0000000E+00
-0.1128600E+01  0.0000000E+00
-0.1128090E+01  0.0000000E+00
-0.1127580E+01  0.0000000E+00
-0.1127070E+01  0.0000000E+00
-0.1126560E+01  0.0000000E+00
-0.1126050E+01  0.0000000E+00
-0.1125540E+01  0.0000000E+00
-0.1125030E+01  0.0000000E+00
-0.1124520E+01  0.0000000E+00
-0.1124010E+01  0.0000000E+00
-0.1123500E+01  0.0000000E+00
-0.1122990E+01  0.0000000E+00
-0.1122480E+01  0.0000000E+00
-0.1121970E+01  0.0000000E+00
-0.1121460E+01  0.0000000E+00
-0.1120950E+01  0.0000000E+00
-0.1120440E+01  0.0000000E+00
-0.1119930E+01  0.0000000E+00
-0.1119420E+01  0.0000000E+00
-0.1118910E+01  0.0000000E+00
-0.1118400E+01  0.0000000E+00
-0.1117890E+01  0.0000000E+00
-0.1117380E+01  0.0000000E+00
-0.1116870E+01  0.0000000E+00
-0.1116360E+01  0.0000000E+00
-0.1115850E+01  0.0000000E+00
-0.1115340E+01  0.0000000E+00
-0.1114830E+01  0.0000000E+00
-0.1114320E+01  0.0000000E+00
-0.1113810E+01  0.0000000E+00
-0.1113300E+01  0.0000000E+00
-0.1112790E+01  0.0000000E+00
-0.1112280E+01  0.0000000E+00
-0.1111770E+01  0.0000000E+00
-0.1111260E+01  0.0000000E+00
-0.1110750E+01  0.0000000E+00
-0.1110240E+01  0.0000000E+00
-0.1109730E+01  0.0000000E+00
-0.1109220E+01  0.0000000E+00
-0.1108710E+01  0.0000000E+00
-0.1108200E+01  0.0000000E+00
-0.1107690E+01  0.0000000E+00
-0.1107180E+01  0.0000000E+00
-0.1106670E+01  0.0000000E+00
-0.1106160E+01  0.0000000E+00
-0.1105650E+01  0.0000000E+00
-0.1105140E+01  0.0000000E+00
-0.1104630E+01  0.0000000E+00
-0.1104120E+01  0.0000000E+00
-0.1103610E+01  0.0000000E+00
-0.1103100E+01  0.0000000E+00
-0.1102590E+01  0.0000000E+00
-0.1102080E+01  0.0000000E+00
-0.1101570E+01  0.0000000E+00
-0.1101060E+01  0.0000000E+00
-0.1100550E+01  0.0000000E+00
-0.1100040E+01  0.0000000E+00
-0.1099530E+01  0.0000000E+00
-0.1099020E+01  0.0000000E+00
-0.1098510E+01  0.0000000E+00
-0.1098000E+01  0.0000000E+00
-0.1097490E+01  0.0000000E+00
-0.1096980E+01  0.0000000E+00
-0.1096470E+01  0.0000000E+00
-0.1095960E+01  0.0000000E+00
-0.1095450E+01  0.0000000E+00
-0.1094940E+01  0.0000000E+00
-0.1094430E+01  0.0000000E+00
-0.1093920E+01  0.0000000E+00
-0.1093410E+01  0.0000000E+00
-0.1092900E+01  0.0000000E+00
-0.1092390E+01  0.0000000E+00
-0.1091880E+01  0.0000000E+00
-0.1091370E+01  0.0000000E+00
-0.1090860E+01  0.0000000E+00
-0.1090350E+01  0.0000000E+00
-0.1089840E+01  0.0000000E+00
-0.1089330E+01  0.0000000E+00
-0.1088820E+01  0.0000000E+00
-0.1088310E+01  0.0000000E+00
-0.1087800E+01  0.0000000E+00
-0.1087290E+01  0.0000000E+00
-0.1086780E+01  0.0000000E+00
-0.1086270E+01  0.0000000E+00
-0.1085760E+01  0.0000000E+00
-0.1085250E+01  0.0000000E+00
-0.1084740E+01  0.0000000E+00
-0.1084230E+01  0.0000000E+00
-0.1083720E+01  0.0000000E+00
-0.1083210E+01  0.0000000E+00
-0.1082700E+01  0.0000000E+00
-0.1082190E+01  0.0000000E+00
-0.1081680E+01  0.0000000E+00
-0.1081170E+01  0.0000000E+00
-0.1080660E+01  0.0000000E+00
-0.1080150E+01  0.0000000E+00
-0.1079640E+01  0.0000000E+00
-0.1079130E+01  0.0000000E+00
-0.1078620E+01  0.0000000E+00
-0.1078110E+01  0.0000000E+00
-0.1077600E+01  0.0000000E+00
-0.1077090E+01  0.0000000E+00
-0.1076580E+01  0.0000000E+00
-0.1076070E+01  0.0000000E+00
-0.1075560E+01  0.0000000E+00
-0.1075050E+01  0.0000000E+00
-0.1074540E+01  0.0000000E+00
-0.1074030E+01  0.0000000E+00
-0.1073520E+01  0.0000000E+00
-0.1073010E+01  0.0000000E+00
-0.1072500E+01  0.0000000E+00
-0.1071990E+01  0.0000000E+00
-0.1071480E+01  0.0000000E+00
-0.1070970E+01  0.0000000E+00
-0.1070460E+01  0.0000000E+00
-0.1069950E+01  0.0000000E+00
-0.1069440E+01  0.0000000E+00
-0.1068930E+01  0.0000000E+00
-0.1068420E+01  0.0000000E+00
-0.1067910E+01  0.0000000E+00
-0.1067400E+01  0.0000000E+00
-0.1066890E+01  0.0000000E+00
-0.1066380E+01  0.0000000E+00
-0.1065870E+01  0.0000000E+00
-0.1065360E+01  0.0000000E+00
-0.1064850E+01  0.0000000E+00
-0.1064340E+01  0.0000000E+00
-0.1063830E+01  0.0000000E+00
-0.1063320E+01  0.0000000E+00
-0.1062810E+01  0.0000000E+00
-0.1062300E+01  0.0000000E+00
-0.1061790E+01  0.0000000E+00
-0.1061280E+01  0.0000000E+00
-0.1060770E+01  0.0000000E+00
-0.1060260E+01  0.0000000E+00
-0.1059750E+01  0.0000000E+00
-0.1059240E+01  0.0000000E+00
-0.1058730E+01  0.0000000E+00
-0.1058220E+01  0.0000000E+00
-0.1057710E+01  0.0000000E+00
-0.1057200E+01  0.0000000E+00
-0.1056690E+01  0.0000000E+00
-0.1056180E+01  0.0000000E+00
-0.1055670E+01  0.0000000E+00
-0.1055160E+01  0.0000000E+00
-0.1054650E+01  0.0000000E+00
-0.1054140E+01  0.0000000E+00
-0.1053630E+01  0.0000000E+00
-0.1053120E+01  0.0000000E+00
-0.1052610E+01  0.0000000E+00
-0.1052100E+01  0.0000000E+00
-0.1051590E+01  0.0000000E+00
-0.1051080E+01  0.0000000E+00
-0.1050570E+01  0.0000000E+00
-0.1050060E+01  0.0000000E+00
-0.1049550E+01  0.0000000E+00
-0.1049040E+01  0.0000000E+00
-0.1048530E+01  0.0000000E+00
-0.1048020E+01  0.0000000E+00
-0.1047510E+01  0.0000000E+00
-0.1047000E+01  0.0000000E+00
-0.1046490E+01  0.0000000E+00
-0.1045980E+01  0.0000000E+00
-0.1045470E+01  0.0000000E+00
-0.1044960E+01  0.0000000E+00
-0.1044450E+01  0.0000000E+00
-0.1043940E+01  0.0000000E+00
-0.1043430E+01  0.0000000E+00
-0.1042920E+01  0.0000000E+00
-0.1042410E+01  0.0000000E+00
-0.1041900E+01  0.0000000E+00
-0.1041390E+01  0.0000000E+00
-0.1040880E+01  0.0000000E+00
-0.1040370E+01  0.0000000E+00
-0.1039860E+01  0.0000000E+00
-0.1039350E+01  0.0000000E+00
-0.1038840E+01  0.0000000E+00
-0.1038330E+01  0.0000000E+00
-0.1037820E+01  0.0000000E+00
-0.1037310E+01  0.0000000E+00
-0.1036800E+01  0.0000000E+00
-0.1036290E+01  0.0000000E+00
-0.1035780E+01  0.0000000E+00
-0.1035270E+01  0.0000000E+00
-0.1034760E+01  0.0000000E+00
-0.1034250E+01  0.0000000E+00
-0.1033740E+01  0.0000000E+00
-0.1033230E+01  0.0000000E+00
-0.1032720E+01  0.0000000E+00
-0.1032210E+01  0.0000000E+00
-0.1031700E+01  0.0000000E+00
-0.1031190E+01  0.0000000E+00
-0.1030680E+01  0.0000000E+00
-0.1030170E+01  0.0000000E+00
-0.1029660E+01  0.0000000E+00
-0.1029150E+01  0.0000000E+00
-0.1028640E+01  0.0000000E+00
-0.1028130E+01  0.0000000E+00
-0.1027620E+01  0.0000000E+00
-0.1027110E+01  0.0000000E+00
-0.1026600E+01  0.0000000E+00
-0.1026090E+01  0.0000000E+00
-0.1025580E+01  0.0000000E+00
-0.1025070E+01  0.0000000E+00
-0.1024560E+01  0.0000000E+00
-0.1024050E+01  0.0000000E+00
-0.1023540E+01  0.0000000E+00
-0.1023030E+01  0.0000000E+00
-0.1022520E+01  0.0000000E+00
-0.1022010E+01  0.0000000E+00
-0.1021500E+01  0.0000000E+00
-0.1020990E+01  0.0000000E+00
-0.1020480E+01  0.0000000E+00
-0.1019970E+01  0.0000000E+00
-0.1019460E+01  0.0000000E+00
-0.1018950E+01  0.0000000E+00
-0.1018440E+01  0.0000000E+00
-0.1017930E+01  0.0000000E+00
-0.1017420E+01  0.0000000E+00
-0.1016910E+01  0.0000000E+00
-0.1016400E+01  0.0000000E+00
-0.1015890E+01  0.0000000E+00
-0.1015380E+01  0.0000000E+00
-0.1014870E+01  0.0000000E+00
-0.1014360E+01  0.0000000E+00
-0.1013850E+01  0.0000000E+00
-0.1013340E+01  0.0000000E+00
-0.1012830E+01  0.0000000E+00
-0.1012320E+01  0.0000000E+00
-0.1011810E+01  0.0000000E+00
-0.1011300E+01  0.0000000E+00
-0.1010790E+01  0.0000000E+00
-0.1010280E+01  0.0000000E+00
-0.1009770E+01  0.0000000E+00
-0.1009260E+01 -0.0000000E+00
-0.1008750E+01 -0.0000000E+00
-0.1008240E+01 -0.0000000E+00
-0.1007730E+01 -0.0000000E+00
-0.1007220E+01 -0.0000000E+00
-0.1006710E+01 -0.0000000E+00
-0.1006200E+01  0.0000000E+00
-0.1005690E+01  0.0000000E+00
-0.1005180E+01  0.0000000E+00
-0.1004670E+01  0.0000000E+00
-0.1004160E+01  0.0000000E+00
-0.1003650E+01  0.0000000E+00
-0.1003140E+01  0.0000000E+00
-0.1002630E+01  0.0000000E+00
-0.1002120E+01  0.0000000E+00
-0.1001610E+01  0.0000000E+00
-0.1001100E+01  0.0000000E+00
-0.1000590E+01  0.0000000E+00
-0.1000080E+01  0.0000000E+00
-0.9995700E+00  0.0000000E+00
-0.9990600E+00  0.0000000E+00
-0.9985500E+00  0.0000000E+00
-0.9980400E+00 -0.0000000E+00
-0.9975300E+00 -0.0000000E+00
-0.9970200E+00 -0.0000000E+00
-0.9965100E+00 -0.0000000E+00
-0.9960000E+00 -0.0000000E+00
-0.9954900E+00 -0.0000000E+00
-0.9949800E+00 -0.0000000E+00
-0.9944700E+00 -0.0000000E+00
-0.9939600E+00 -0.1761707E-37
-0.9934500E+00 -0.4103744E-37
-0.9929400E+00 -0.6727710E-37
-0.9924300E+00 -0.9524239E-37
-0.9919200E+00 -0.1178379E-36
-0.9914100E+00 -0.1346702E-36
-0.9909000E+00 -0.1499596E-36
-0.9903900E+00 -0.1624765E-36
-0.9898800E+00 -0.1739596E-36
-0.9893700E+00 -0.1781593E-36
-0.9888600E+00 -0.1732550E-36
-0.9883500E+00 -0.1567300E-36
-0.9878400E+00 -0.1262085E-36
-0.9873300E+00 -0.8174448E-37
-0.9868200E+00 -0.2692747E-37
-0.9863100E+00  0.2747719E-37
-0.9858000E+00  0.7718198E-37
-0.9852900E+00  0.1197768E-36
-0.9847800E+00  0.1537305E-36
-0.9842700E+00  0.1723431E-36
-0.9837600E+00  0.1719892E-36
-0.9832500E+00  0.1490667E-36
-0.9827400E+00  0.1031007E-36
-0.9822300E+00  0.3258966E-37
-0.9817200E+00 -0.6276428E-37
-0.9812100E+00 -0.1801451E-36
-0.9807000E+00 -0.3189293E-36
-0.9801900E+00 -0.4748617E-36
-0.9796800E+00 -0.6452482E-36
-0.9791700E+00 -0.8246587E-36
-0.9786600E+00 -0.1008812E-35
-0.9781500E+00 -0.1192221E-35
-0.9776400E+00 -0.1375195E-35
-0.9771300E+00 -0.1556275E-35
-0.9766200E+00 -0.1730605E-35
-0.9761100E+00 -0.1899669E-35
-0.9756000E+00 -0.2063397E-35
-0.9750900E+00 -0.2224573E-35
-0.9745800E+00 -0.2383894E-35
-0.9740700E+00 -0.2544352E-35
-0.9735600E+00 -0.2709669E-35
-0.9730500E+00 -0.2878963E-35
-0.9725400E+00 -0.3057994E-35
-0.9720300E+00 -0.3249419E-35
-0.9715200E+00 -0.3451324E-35
-0.9710100E+00 -0.3666843E-35
-0.9705000E+00 -0.3895359E-35
-0.9699900E+00 -0.4138692E-35
-0.9694800E+00 -0.4400442E-35
-0.9689700E+00 -0.4675384E-35
-0.9684600E+00 -0.4959477E-35
-0.9679500E+00 -0.5247953E-35
-0.9674400E+00 -0.5533079E-35
-0.9669300E+00 -0.5808945E-35
-0.9664200E+00 -0.6074489E-35
-0.9659100E+00 -0.6322776E-35
-0.9654000E+00 -0.6550994E-35
-0.9648900E+00 -0.6757637E-35
-0.9643800E+00 -0.6947565E-35
-0.9638700E+00 -0.7119161E-35
-0.9633600E+00 -0.7273913E-35
-0.9628500E+00 -0.7413573E-35
-0.9623400E+00 -0.7540327E-35
-0.9618300E+00 -0.7663359E-35
-0.9613200E+00 -0.7788909E-35
-0.9608100E+00 -0.7926280E-35
-0.9603000E+00 -0.8081470E-35
-0.9597900E+00 -0.8260119E-35
-0.9592800E+00 -0.8466569E-35
-0.9587700E+00 -0.8703795E-35
-0.9582600E+00 -0.8972953E-35
-0.9577500E+00 -0.9273122E-35
-0.9572400E+00 -0.9601834E-35
-0.9567300E+00 -0.9955154E-35
-0.9562200E+00 -0.1032802E-34
-0.9557100E+00 -0.1071463E-34
-0.9552000E+00 -0.1111100E-34
-0.9546900E+00 -0.1151191E-34
-0.9541800E+00 -0.1191246E-34
-0.9536700E+00 -0.1230867E-34
-0.9531600E+00 -0.1269786E-34
-0.9526500E+00 -0.1307865E-34
-0.9521400E+00 -0.1345099E-34
-0.9516300E+00 -0.1381658E-34
-0.9511200E+00 -0.1417833E-34
-0.9506100E+00 -0.1454036E-34
-0.9501000E+00 -0.1490773E-34
-0.9495900E+00 -0.1528605E-34
-0.9490800E+00 -0.1568216E-34
-0.9485700E+00 -0.1609843E-34
-0.9480600E+00 -0.1654194E-34
-0.9475500E+00 -0.1701682E-34
-0.9470400E+00 -0.1752418E-34
-0.9465300E+00 -0.1806815E-34
-0.9460200E+00 -0.1864852E-34
-0.9455100E+00 -0.1926414E-34
-0.9450000E+00 -0.1991258E-34
-0.9444900E+00 -0.2059031E-34
-0.9439800E+00 -0.2129296E-34
-0.9434700E+00 -0.2201373E-34
-0.9429600E+00 -0.2275053E-34
-0.9424500E+00 -0.2349799E-34
-0.9419400E+00 -0.2425023E-34
-0.9414300E+00 -0.2500474E-34
-0.9409200E+00 -0.2576071E-34
-0.9404100E+00 -0.2651792E-34
-0.9399000E+00 -0.2727669E-34
-0.9393900E+00 -0.2804222E-34
-0.9388800E+00 -0.2881852E-34
-0.9383700E+00 -0.2961325E-34
-0.9378600E+00 -0.3042929E-34
-0.9373500E+00 -0.3126966E-34
-0.9368400E+00 -0.3214267E-34
-0.9363300E+00 -0.3305366E-34
-0.9358200E+00 -0.3400713E-34
-0.9353100E+00 -0.3500737E-34
-0.9348000E+00 -0.3605455E-34
-0.9342900E+00 -0.3715032E-34
-0.9337800E+00 -0.3829447E-34
-0.9332700E+00 -0.3948518E-34
-0.9327600E+00 -0.4071970E-34
-0.9322500E+00 -0.4199156E-34
-0.9317400E+00 -0.4329990E-34
-0.9312300E+00 -0.4464384E-34
-0.9307200E+00 -0.4601659E-34
-0.9302100E+00 -0.4741500E-34
-0.9297000E+00 -0.4883689E-34
-0.9291900E+00 -0.5028133E-34
-0.9286800E+00 -0.5175010E-34
-0.9281700E+00 -0.5324335E-34
-0.9276600E+00 -0.5476435E-34
-0.9271500E+00 -0.5631752E-34
-0.9266400E+00 -0.5790834E-34
-0.9261300E+00 -0.5954304E-34
-0.9256200E+00 -0.6122868E-34
-0.9251100E+00 -0.6296897E-34
-0.9246000E+00 -0.6477330E-34
-0.9240900E+00 -0.6664768E-34
-0.9235800E+00 -0.6859694E-34
-0.9230700E+00 -0.7062462E-34
-0.9225600E+00 -0.7273307E-34
-0.9220500E+00 -0.7492362E-34
-0.9215400E+00 -0.7719590E-34
-0.9210300E+00 -0.7954828E-34
-0.9205200E+00 -0.8197822E-34
-0.9200100E+00 -0.8448062E-34
-0.9195000E+00 -0.8705535E-34
-0.9189900E+00 -0.8969788E-34
-0.9184800E+00 -0.9240544E-34
-0.9179700E+00 -0.9517519E-34
-0.9174600E+00 -0.9800752E-34
-0.9169500E+00 -0.1009045E-33
-0.9164400E+00 -0.1038650E-33
-0.9159300E+00 -0.1068931E-33
-0.9154200E+00 -0.1099933E-33
-0.9149100E+00 -0.1131716E-33
-0.9144000E+00 -0.1164347E-33
-0.9138900E+00 -0.1197930E-33
-0.9133800E+00 -0.1232528E-33
-0.9128700E+00 -0.1268209E-33
-0.9123600E+00 -0.1305030E-33
-0.9118500E+00 -0.1343072E-33
-0.9113400E+00 -0.1382384E-33
-0.9108300E+00 -0.1423023E-33
-0.9103200E+00 -0.1465035E-33
-0.9098100E+00 -0.1508428E-33
-0.9093000E+00 -0.1553212E-33
-0.9087900E+00 -0.1599387E-33
-0.9082800E+00 -0.1646947E-33
-0.9077700E+00 -0.1695870E-33
-0.9072600E+00 -0.1746177E-33
-0.9067500E+00 -0.1797858E-33
-0.9062400E+00 -0.1850901E-33
-0.9057300E+00 -0.1905322E-33
-0.9052200E+00 -0.1961146E-33
-0.9047100E+00 -0.2018414E-33
-0.9042000E+00 -0.2077180E-33
-0.9036900E+00 -0.2137511E-33
-0.9031800E+00 -0.2199487E-33
-0.9026700E+00 -0.2263199E-33
-0.9021600E+00 -0.2328745E-33
-0.9016500E+00 -0.2396237E-33
-0.9011400E+00 -0.2465736E-33
-0.9006300E+00 -0.2537381E-33
-0.9001200E+00 -0.2611256E-33
-0.8996100E+00 -0.2687446E-33
-0.8991000E+00 -0.2766029E-33
-0.8985900E+00 -0.2847071E-33
-0.8980800E+00 -0.2930626E-33
-0.8975700E+00 -0.3016741E-33
-0.8970600E+00 -0.3105432E-33
-0.8965500E+00 -0.3196757E-33
-0.8960400E+00 -0.3290774E-33
-0.8955300E+00 -0.3387495E-33
-0.8950200E+00 -0.3486956E-33
-0.8945100E+00 -0.3589212E-33
-0.8940000E+00 -0.3694304E-33
-0.8934900E+00 -0.3802299E-33
-0.8929800E+00 -0.3913277E-33
-0.8924700E+00 -0.4027329E-33
-0.8919600E+00 -0.4144562E-33
-0.8914500E+00 -0.4265094E-33
-0.8909400E+00 -0.4389053E-33
-0.8904300E+00 -0.4516578E-33
-0.8899200E+00 -0.4647819E-33
-0.8894100E+00 -0.4782896E-33
-0.8889000E+00 -0.4921968E-33
-0.8883900E+00 -0.5065183E-33
-0.8878800E+00 -0.5212671E-33
-0.8873700E+00 -0.5364562E-33
-0.8868600E+00 -0.5520979E-33
-0.8863500E+00 -0.5682038E-33
-0.8858400E+00 -0.5847846E-33
-0.8853300E+00 -0.6018508E-33
-0.8848200E+00 -0.6194110E-33
-0.8843100E+00 -0.6374778E-33
-0.8838000E+00 -0.6560643E-33
-0.8832900E+00 -0.6751783E-33
-0.8827800E+00 -0.6948316E-33
-0.8822700E+00 -0.7150390E-33
-0.8817600E+00 -0.7358125E-33
-0.8812500E+00 -0.7571692E-33
-0.8807400E+00 -0.7791269E-33
-0.8802300E+00 -0.8017050E-33
-0.8797200E+00 -0.8249242E-33
-0.8792100E+00 -0.8488068E-33
-0.8787000E+00 -0.8733761E-33
-0.8781900E+00 -0.8986562E-33
-0.8776800E+00 -0.9246741E-33
-0.8771700E+00 -0.9514518E-33
-0.8766600E+00 -0.9790158E-33
-0.8761500E+00 -0.1007386E-32
-0.8756400E+00 -0.1036589E-32
-0.8751300E+00 -0.1066648E-32
-0.8746200E+00 -0.1097589E-32
-0.8741100E+00 -0.1129435E-32
-0.8736000E+00 -0.1162212E-32
-0.8730900E+00 -0.1195942E-32
-0.8725800E+00 -0.1230649E-32
-0.8720700E+00 -0.1266356E-32
-0.8715600E+00 -0.1303088E-32
-0.8710500E+00 -0.1340873E-32
-0.8705400E+00 -0.1379737E-32
-0.8700300E+00 -0.1419709E-32
-0.8695200E+00 -0.1460820E-32
-0.8690100E+00 -0.1503102E-32
-0.8685000E+00 -0.1546589E-32
-0.8679900E+00 -0.1591318E-32
-0.8674800E+00 -0.1637326E-32
-0.8669700E+00 -0.1684651E-32
-0.8664600E+00 -0.1733334E-32
-0.8659500E+00 -0.1783417E-32
-0.8654400E+00 -0.1834940E-32
-0.8649300E+00 -0.1887949E-32
-0.8644200E+00 -0.1942487E-32
-0.8639100E+00 -0.1998597E-32
-0.8634000E+00 -0.2056324E-32
-0.8628900E+00 -0.2115710E-32
-0.8623800E+00 -0.2176800E-32
-0.8618700E+00 -0.2239639E-32
-0.8613600E+00 -0.2304275E-32
-0.8608500E+00 -0.2370758E-32
-0.8603400E+00 -0.2439139E-32
-0.8598300E+00 -0.2509469E-32
-0.8593200E+00 -0.2581803E-32
-0.8588100E+00 -0.2656198E-32
-0.8583000E+00 -0.2732714E-32
-0.8577900E+00 -0.2811413E-32
-0.8572800E+00 -0.2892359E-32
-0.8567700E+00 -0.2975620E-32
-0.8562600E+00 -0.3061263E-32
-0.8557500E+00 -0.3149360E-32
-0.8552400E+00 -0.3239983E-32
-0.8547300E+00 -0.3333209E-32
-0.8542200E+00 -0.3429112E-32
-0.8537100E+00 -0.3527769E-32
-0.8532000E+00 -0.3629260E-32
-0.8526900E+00 -0.3733664E-32
-0.8521800E+00 -0.3841062E-32
-0.8516700E+00 -0.3951536E-32
-0.8511600E+00 -0.4065171E-32
-0.8506500E+00 -0.4182053E-32
-0.8501400E+00 -0.4302270E-32
-0.8496300E+00 -0.4425913E-32
-0.8491200E+00 -0.4553077E-32
-0.8486100E+00 -0.4683858E-32
-0.8481000E+00 -0.4818355E-32
-0.8475900E+00 -0.4956675E-32
-0.8470800E+00 -0.5098924E-32
-0.8465700E+00 -0.5245216E-32
-0.8460600E+00 -0.5395666E-32
-0.8455500E+00 -0.5550397E-32
-0.8450400E+00 -0.5709533E-32
-0.8445300E+00 -0.5873203E-32
-0.8440200E+00 -0.6041539E-32
-0.8435100E+00 -0.6214677E-32
-0.8430000E+00 -0.6392756E-32
-0.8424900E+00 -0.6575920E-32
-0.8419800E+00 -0.6764312E-32
-0.8414700E+00 -0.6958083E-32
-0.8409600E+00 -0.7157382E-32
-0.8404500E+00 -0.7362364E-32
-0.8399400E+00 -0.7573187E-32
-0.8394300E+00 -0.7790011E-32
-0.8389200E+00 -0.8013003E-32
-0.8384100E+00 -0.8242330E-32
-0.8379000E+00 -0.8478166E-32
-0.8373900E+00 -0.8720694E-32
-0.8368800E+00 -0.8970097E-32
-0.8363700E+00 -0.9226568E-32
-0.8358600E+00 -0.9490307E-32
-0.8353500E+00 -0.9761517E-32
-0.8348400E+00 -0.1004041E-31
-0.8343300E+00 -0.1032721E-31
-0.8338200E+00 -0.1062213E-31
-0.8333100E+00 -0.1092542E-31
-0.8328000E+00 -0.1123731E-31
-0.8322900E+00 -0.1155805E-31
-0.8317800E+00 -0.1188790E-31
-0.8312700E+00 -0.1222710E-31
-0.8307600E+00 -0.1257594E-31
-0.8302500E+00 -0.1293467E-31
-0.8297400E+00 -0.1330359E-31
-0.8292300E+00 -0.1368297E-31
-0.8287200E+00 -0.1407311E-31
-0.8282100E+00 -0.1447430E-31
-0.8277000E+00 -0.1488686E-31
-0.8271900E+00 -0.1531109E-31
-0.8266800E+00 -0.1574733E-31
-0.8261700E+00 -0.1619590E-31
-0.8256600E+00 -0.1665714E-31
-0.8251500E+00 -0.1713142E-31
-0.8246400E+00 -0.1761910E-31
-0.8241300E+00 -0.1812054E-31
-0.8236200E+00 -0.1863614E-31
-0.8231100E+00 -0.1916630E-31
-0.8226000E+00 -0.1971143E-31
-0.8220900E+00 -0.2027195E-31
-0.8215800E+00 -0.2084830E-31
-0.8210700E+00 -0.2144093E-31
-0.8205600E+00 -0.2205030E-31
-0.8200500E+00 -0.2267689E-31
-0.8195400E+00 -0.2332118E-31
-0.8190300E+00 -0.2398367E-31
-0.8185200E+00 -0.2466487E-31
-0.8180100E+00 -0.2536531E-31
-0.8175000E+00 -0.2608553E-31
-0.8169900E+00 -0.2682607E-31
-0.8164800E+00 -0.2758751E-31
-0.8159700E+00 -0.2837042E-31
-0.8154600E+00 -0.2917540E-31
-0.8149500E+00 -0.3000306E-31
-0.8144400E+00 -0.3085403E-31
-0.8139300E+00 -0.3172896E-31
-0.8134200E+00 -0.3262851E-31
-0.8129100E+00 -0.3355336E-31
-0.8124000E+00 -0.3450423E-31
-0.8118900E+00 -0.3548184E-31
-0.8113800E+00 -0.3648694E-31
-0.8108700E+00 -0.3752029E-31
-0.8103600E+00 -0.3858270E-31
-0.8098500E+00 -0.3967498E-31
-0.8093400E+00 -0.4079797E-31
-0.8088300E+00 -0.4195253E-31
-0.8083200E+00 -0.4313954E-31
-0.8078100E+00 -0.4435993E-31
-0.8073000E+00 -0.4561462E-31
-0.8067900E+00 -0.4690458E-31
-0.8062800E+00 -0.4823078E-31
-0.8057700E+00 -0.4959425E-31
-0.8052600E+00 -0.5099601E-31
-0.8047500E+00 -0.5243714E-31
-0.8042400E+00 -0.5391872E-31
-0.8037300E+00 -0.5544189E-31
-0.8032200E+00 -0.5700778E-31
-0.8027100E+00 -0.5861759E-31
-0.8022000E+00 -0.6027254E-31
-0.8016900E+00 -0.6197387E-31
-0.8011800E+00 -0.6372288E-31
-0.8006700E+00 -0.6552089E-31
-0.8001600E+00 -0.6736925E-31
-0.7996500E+00 -0.6926938E-31
-0.7991400E+00 -0.7122271E-31
-0.7986300E+00 -0.7323073E-31
-0.7981200E+00 -0.7529496E-31
-0.7976100E+00 -0.7741696E-31
-0.7971000E+00 -0.7959836E-31
-0.7965900E+00 -0.8184080E-31
-0.7960800E+00 -0.8414598E-31
-0.7955700E+00 -0.8651564E-31
-0.7950600E+00 -0.8895159E-31
-0.7945500E+00 -0.9145566E-31
-0.7940400E+00 -0.9402976E-31
-0.7935300E+00 -0.9667581E-31
-0.7930200E+00 -0.9939581E-31
-0.7925100E+00 -0.1021918E-30
-0.7920000E+00 -0.1050659E-30
-0.7914900E+00 -0.1080203E-30
-0.7909800E+00 -0.1110572E-30
-0.7904700E+00 -0.1141789E-30
-0.7899600E+00 -0.1173877E-30
-0.7894500E+00 -0.1206861E-30
-0.7889400E+00 -0.1240764E-30
-0.7884300E+00 -0.1275614E-30
-0.7879200E+00 -0.1311436E-30
-0.7874100E+00 -0.1348256E-30
-0.7869000E+00 -0.1386103E-30
-0.7863900E+00 -0.1425005E-30
-0.7858800E+00 -0.1464992E-30
-0.7853700E+00 -0.1506093E-30
-0.7848600E+00 -0.1548339E-30
-0.7843500E+00 -0.1591762E-30
-0.7838400E+00 -0.1636395E-30
-0.7833300E+00 -0.1682271E-30
-0.7828200E+00 -0.1729424E-30
-0.7823100E+00 -0.1777889E-30
-0.7818000E+00 -0.1827704E-30
-0.7812900E+00 -0.1878904E-30
-0.7807800E+00 -0.1931529E-30
-0.7802700E+00 -0.1985617E-30
-0.7797600E+00 -0.2041208E-30
-0.7792500E+00 -0.2098345E-30
-0.7787400E+00 -0.2157070E-30
-0.7782300E+00 -0.2217426E-30
-0.7777200E+00 -0.2279459E-30
-0.7772100E+00 -0.2343214E-30
-0.7767000E+00 -0.2408740E-30
-0.7761900E+00 -0.2476084E-30
-0.7756800E+00 -0.2545298E-30
-0.7751700E+00 -0.2616433E-30
-0.7746600E+00 -0.2689542E-30
-0.7741500E+00 -0.2764679E-30
-0.7736400E+00 -0.2841900E-30
-0.7731300E+00 -0.2921263E-30
-0.7726200E+00 -0.3002827E-30
-0.7721100E+00 -0.3086652E-30
-0.7716000E+00 -0.3172802E-30
-0.7710900E+00 -0.3261339E-30
-0.7705800E+00 -0.3352330E-30
-0.7700700E+00 -0.3445842E-30
-0.7695600E+00 -0.3541945E-30
-0.7690500E+00 -0.3640710E-30
-0.7685400E+00 -0.3742209E-30
-0.7680300E+00 -0.3846518E-30
-0.7675200E+00 -0.3953715E-30
-0.7670100E+00 -0.4063878E-30
-0.7665000E+00 -0.4177089E-30
-0.7659900E+00 -0.4293431E-30
-0.7654800E+00 -0.4412991E-30
-0.7649700E+00 -0.4535856E-30
-0.7644600E+00 -0.4662117E-30
-0.7639500E+00 -0.4791867E-30
-0.7634400E+00 -0.4925203E-30
-0.7629300E+00 -0.5062221E-30
-0.7624200E+00 -0.5203024E-30
-0.7619100E+00 -0.5347715E-30
-0.7614000E+00 -0.5496401E-30
-0.7608900E+00 -0.5649191E-30
-0.7603800E+00 -0.5806197E-30
-0.7598700E+00 -0.5967536E-30
-0.7593600E+00 -0.6133326E-30
-0.7588500E+00 -0.6303688E-30
-0.7583400E+00 -0.6478749E-30
-0.7578300E+00 -0.6658638E-30
-0.7573200E+00 -0.6843485E-30
-0.7568100E+00 -0.7033428E-30
-0.7563000E+00 -0.7228605E-30
-0.7557900E+00 -0.7429160E-30
-0.7552800E+00 -0.7635241E-30
-0.7547700E+00 -0.7846999E-30
-0.7542600E+00 -0.8064589E-30
-0.7537500E+00 -0.8288171E-30
-0.7532400E+00 -0.8517909E-30
-0.7527300E+00 -0.8753970E-30
-0.7522200E+00 -0.8996528E-30
-0.7517100E+00 -0.9245761E-30
-0.7512000E+00 -0.9501851E-30
-0.7506900E+00 -0.9764985E-30
-0.7501800E+00 -0.1003536E-29
-0.7496700E+00 -0.1031316E-29
-0.7491600E+00 -0.1059860E-29
-0.7486500E+00 -0.1089188E-29
-0.7481400E+00 -0.1119322E-29
-0.7476300E+00 -0.1150284E-29
-0.7471200E+00 -0.1182095E-29
-0.7466100E+00 -0.1214780E-29
-0.7461000E+00 -0.1248362E-29
-0.7455900E+00 -0.1282865E-29
-0.7450800E+00 -0.1318315E-29
-0.7445700E+00 -0.1354737E-29
-0.7440600E+00 -0.1392157E-29
-0.7435500E+00 -0.1430603E-29
-0.7430400E+00 -0.1470102E-29
-0.7425300E+00 -0.1510684E-29
-0.7420200E+00 -0.1552378E-29
-0.7415100E+00 -0.1595213E-29
-0.7410000E+00 -0.1639222E-29
-0.7404900E+00 -0.1684435E-29
-0.7399800E+00 -0.1730887E-29
-0.7394700E+00 -0.1778610E-29
-0.7389600E+00 -0.1827640E-29
-0.7384500E+00 -0.1878012E-29
-0.7379400E+00 -0.1929762E-29
-0.7374300E+00 -0.1982928E-29
-0.7369200E+00 -0.2037550E-29
-0.7364100E+00 -0.2093665E-29
-0.7359000E+00 -0.2151316E-29
-0.7353900E+00 -0.2210543E-29
-0.7348800E+00 -0.2271390E-29
-0.7343700E+00 -0.2333901E-29
-0.7338600E+00 -0.2398121E-29
-0.7333500E+00 -0.2464096E-29
-0.7328400E+00 -0.2531873E-29
-0.7323300E+00 -0.2601502E-29
-0.7318200E+00 -0.2673033E-29
-0.7313100E+00 -0.2746517E-29
-0.7308000E+00 -0.2822006E-29
-0.7302900E+00 -0.2899555E-29
-0.7297800E+00 -0.2979220E-29
-0.7292700E+00 -0.3061057E-29
-0.7287600E+00 -0.3145125E-29
-0.7282500E+00 -0.3231484E-29
-0.7277400E+00 -0.3320197E-29
-0.7272300E+00 -0.3411326E-29
-0.7267200E+00 -0.3504936E-29
-0.7262100E+00 -0.3601095E-29
-0.7257000E+00 -0.3699872E-29
-0.7251900E+00 -0.3801337E-29
-0.7246800E+00 -0.3905562E-29
-0.7241700E+00 -0.4012624E-29
-0.7236600E+00 -0.4122597E-29
-0.7231500E+00 -0.4235562E-29
-0.7226400E+00 -0.4351598E-29
-0.7221300E+00 -0.4470790E-29
-0.7216200E+00 -0.4593223E-29
-0.7211100E+00 -0.4718984E-29
-0.7206000E+00 -0.4848164E-29
-0.7200900E+00 -0.4980855E-29
-0.7195800E+00 -0.5117152E-29
-0.7190700E+00 -0.5257153E-29
-0.7185600E+00 -0.5400958E-29
-0.7180500E+00 -0.5548671E-29
-0.7175400E+00 -0.5700396E-29
-0.7170300E+00 -0.5856241E-29
-0.7165200E+00 -0.6016319E-29
-0.7160100E+00 -0.6180741E-29
-0.7155000E+00 -0.6349627E-29
-0.7149900E+00 -0.6523095E-29
-0.7144800E+00 -0.6701268E-29
-0.7139700E+00 -0.6884273E-29
-0.7134600E+00 -0.7072238E-29
-0.7129500E+00 -0.7265298E-29
-0.7124400E+00 -0.7463587E-29
-0.7119300E+00 -0.7667247E-29
-0.7114200E+00 -0.7876420E-29
-0.7109100E+00 -0.8091254E-29
-0.7104000E+00 -0.8311901E-29
-0.7098900E+00 -0.8538515E-29
-0.7093800E+00 -0.8771257E-29
-0.7088700E+00 -0.9010291E-29
-0.7083600E+00 -0.9255785E-29
-0.7078500E+00 -0.9507914E-29
-0.7073400E+00 -0.9766854E-29
-0.7068300E+00 -0.1003279E-28
-0.7063200E+00 -0.1030591E-28
-0.7058100E+00 -0.1058640E-28
-0.7053000E+00 -0.1087448E-28
-0.7047900E+00 -0.1117033E-28
-0.7042800E+00 -0.1147417E-28
-0.7037700E+00 -0.1178621E-28
-0.7032600E+00 -0.1210668E-28
-0.7027500E+00 -0.1243581E-28
-0.7022400E+00 -0.1277383E-28
-0.7017300E+00 -0.1312097E-28
-0.7012200E+00 -0.1347748E-28
-0.7007100E+00 -0.1384362E-28
-0.7002000E+00 -0.1421964E-28
-0.6996900E+00 -0.1460582E-28
-0.6991800E+00 -0.1500241E-28
-0.6986700E+00 -0.1540971E-28
-0.6981600E+00 -0.1582799E-28
-0.6976500E+00 -0.1625755E-28
-0.6971400E+00 -0.1669869E-28
-0.6966300E+00 -0.1715172E-28
-0.6961200E+00 -0.1761695E-28
-0.6956100E+00 -0.1809471E-28
-0.6951000E+00 -0.1858534E-28
-0.6945900E+00 -0.1908916E-28
-0.6940800E+00 -0.1960653E-28
-0.6935700E+00 -0.2013781E-28
-0.6930600E+00 -0.2068337E-28
-0.6925500E+00 -0.2124359E-28
-0.6920400E+00 -0.2181885E-28
-0.6915300E+00 -0.2240955E-28
-0.6910200E+00 -0.2301611E-28
-0.6905100E+00 -0.2363894E-28