-0.1200000E+01 -0.1438771E-28
-0.1199490E+01 -0.1477837E-28
-0.1198980E+01 -0.1517956E-28
-0.1198470E+01 -0.1559156E-28
-0.1197960E+01 -0.1601466E-28
-0.1197450E+01 -0.1644917E-28
-0.1196940E+01 -0.1689537E-28
-0.1196430E+01 -0.1735359E-28
-0.1195920E+01 -0.1782415E-28
-0.1195410E+01 -0.1830738E-28
-0.1194900E+01 -0.1880360E-28
-0.1194390E+01 -0.1931318E-28
-0.1193880E+01 -0.1983646E-28
-0.1193370E+01 -0.2037381E-28
-0.1192860E+01 -0.2092560E-28
-0.1192350E+01 -0.2149223E-28
-0.1191840E+01 -0.2207408E-28
-0.1191330E+01 -0.2267156E-28
-0.1190820E+01 -0.2328509E-28
-0.1190310E+01 -0.2391510E-28
-0.1189800E+01 -0.2456203E-28
-0.1189290E+01 -0.2522632E-28
-0.1188780E+01 -0.2590844E-28
-0.1188270E+01 -0.2660887E-28
-0.1187760E+01 -0.2732810E-28
-0.1187250E+01 -0.2806662E-28
-0.1186740E+01 -0.2882494E-28
-0.1186230E+01 -0.2960360E-28
-0.1185720E+01 -0.3040315E-28
-0.1185210E+01 -0.3122412E-28
-0.1184700E+01 -0.3206709E-28
-0.1184190E+01 -0.3293266E-28
-0.1183680E+01 -0.3382142E-28
-0.1183170E+01 -0.3473398E-28
-0.1182660E+01 -0.3567098E-28
-0.1182150E+01 -0.3663306E-28
-0.1181640E+01 -0.3762089E-28
-0.1181130E+01 -0.3863516E-28
-0.1180620E+01 -0.3967657E-28
-0.1180110E+01 -0.4074583E-28
-0.1179600E+01 -0.4184368E-28
-0.1179090E+01 -0.4297089E-28
-0.1178580E+01 -0.4412822E-28
-0.1178070E+01 -0.4531649E-28
-0.1177560E+01 -0.4653651E-28
-0.1177050E+01 -0.4778913E-28
-0.1176540E+01 -0.4907520E-28
-0.1176030E+01 -0.5039561E-28
-0.1175520E+01 -0.5175129E-28
-0.1175010E+01 -0.5314316E-28
-0.1174500E+01 -0.5457219E-28
-0.1173990E+01 -0.5603936E-28
-0.1173480E+01 -0.5754567E-28
-0.1172970E+01 -0.5909218E-28
-0.1172460E+01 -0.6067994E-28
-0.1171950E+01 -0.6231005E-28
-0.1171440E+01 -0.6398362E-28
-0.1170930E+01 -0.6570182E-28
-0.1170420E+01 -0.6746581E-28
-0.1169910E+01 -0.6927680E-28
-0.1169400E+01 -0.7113605E-28
-0.1168890E+01 -0.7304481E-28
-0.1168380E+01 -0.7500441E-28
-0.1167870E+01 -0.7701618E-28
-0.1167360E+01 -0.7908149E-28
-0.1166850E+01 -0.8120176E-28
-0.1166340E+01 -0.8337845E-28
-0.1165830E+01 -0.8561303E-28
-0.1165320E+01 -0.8790704E-28
-0.1164810E+01 -0.9026205E-28
-0.1164300E+01 -0.9267966E-28
-0.1163790E+01 -0.9516153E-28
-0.1163280E+01 -0.9770934E-28
-0.1162770E+01 -0.1003248E-27
-0.1162260E+01 -0.1030098E-27
-0.1161750E+01 -0.1057661E-27
-0.1161240E+01 -0.1085956E-27
-0.1160730E+01 -0.1115002E-27
-0.1160220E+01 -0.1144818E-27
-0.1159710E+01 -0.1175427E-27
-0.1159200E+01 -0.1206847E-27
-0.1158690E+01 -0.1239100E-27
-0.1158180E+01 -0.1272209E-27
-0.1157670E+01 -0.1306196E-27
-0.1157160E+01 -0.1341084E-27
-0.1156650E+01 -0.1376897E-27
-0.1156140E+01 -0.1413658E-27
-0.1155630E+01 -0.1451393E-27
-0.1155120E+01 -0.1490128E-27
-0.1154610E+01 -0.1529888E-27
-0.1154100E+01 -0.1570701E-27
-0.1153590E+01 -0.1612595E-27
-0.1153080E+01 -0.1655596E-27
-0.1152570E+01 -0.1699736E-27
-0.1152060E+01 -0.1745043E-27
-0.1151550E+01 -0.1791549E-27
-0.1151040E+01 -0.1839284E-27
-0.1150530E+01 -0.1888281E-27
-0.1150020E+01 -0.1938574E-27
-0.1149510E+01 -0.1990195E-27
-0.1149000E+01 -0.2043181E-27
-0.1148490E+01 -0.2097566E-27
-0.1147980E+01 -0.2153388E-27
-0.1147470E+01 -0.2210684E-27
-0.1146960E+01 -0.2269492E-27
-0.1146450E+01 -0.2329853E-27
-0.1145940E+01 -0.2391808E-27
-0.1145430E+01 -0.2455396E-27
-0.1144920E+01 -0.2520663E-27
-0.1144410E+01 -0.2587651E-27
-0.1143900E+01 -0.2656406E-27
-0.1143390E+01 -0.2726974E-27
-0.1142880E+01 -0.2799401E-27
-0.1142370E+01 -0.2873738E-27
-0.1141860E+01 -0.2950033E-27
-0.1141350E+01 -0.3028338E-27
-0.1140840E+01 -0.3108705E-27
-0.1140330E+01 -0.3191189E-27
-0.1139820E+01 -0.3275844E-27
-0.1139310E+01 -0.3362728E-27
-0.1138800E+01 -0.3451898E-27
-0.1138290E+01 -0.3543414E-27
-0.1137780E+01 -0.3637337E-27
-0.1137270E+01 -0.3733731E-27
-0.1136760E+01 -0.3832659E-27
-0.1136250E+01 -0.3934188E-27
-0.1135740E+01 -0.4038385E-27
-0.1135230E+01 -0.4145321E-27
-0.1134720E+01 -0.4255066E-27
-0.1134210E+01 -0.4367694E-27
-0.1133700E+01 -0.4483280E-27
-0.1133190E+01 -0.4601900E-27
-0.1132680E+01 -0.4723634E-27
-0.1132170E+01 -0.4848564E-27
-0.1131660E+01 -0.4976771E-27
-0.1131150E+01 -0.5108341E-27
-0.1130640E+01 -0.5243363E-27
-0.1130130E+01 -0.5381925E-27
-0.1129620E+01 -0.5524120E-27
-0.1129110E+01 -0.5670042E-27
-0.1128600E+01 -0.5819788E-27
-0.1128090E+01 -0.5973458E-27
-0.1127580E+01 -0.6131153E-27
-0.1127070E+01 -0.6292979E-27
-0.1126560E+01 -0.6459041E-27
-0.1126050E+01 -0.6629450E-27
-0.1125540E+01 -0.6804320E-27
-0.1125030E+01 -0.6983766E-27
-0.1124520E+01 -0.7167906E-27
-0.1124010E+01 -0.7356864E-27
-0.1123500E+01 -0.7550762E-27
-0.1122990E+01 -0.7749731E-27
-0.1122480E+01 -0.7953901E-27
-0.1121970E+01 -0.8163408E-27
-0.1121460E+01 -0.8378390E-27
-0.1120950E+01 -0.8598989E-27
-0.1120440E+01 -0.8825351E-27
-0.1119930E+01 -0.9057623E-27
-0.1119420E+01 -0.9295961E-27
-0.1118910E+01 -0.9540522E-27
-0.1118400E+01 -0.9791465E-27
-0.1117890E+01 -0.1004896E-26
-0.1117380E+01 -0.1031317E-26
-0.1116870E+01 -0.1058427E-26
-0.1116360E+01 -0.1086244E-26
-0.1115850E+01 -0.1114787E-26
-0.1115340E+01 -0.1144074E-26
-0.1114830E+01 -0.1174124E-26
-0.1114320E+01 -0.1204957E-26
-0.1113810E+01 -0.1236593E-26
-0.1113300E+01 -0.1269054E-26
-0.1112790E+01 -0.1302359E-26
-0.1112280E+01 -0.1336532E-26
-0.1111770E+01 -0.1371594E-26
-0.1111260E+01 -0.1407569E-26
-0.1110750E+01 -0.1444480E-26
-0.1110240E+01 -0.1482351E-26
-0.1109730E+01 -0.1521207E-26
-0.1109220E+01 -0.1561074E-26
-0.1108710E+01 -0.1601977E-26
-0.1108200E+01 -0.1643943E-26
-0.1107690E+01 -0.1686999E-26
-0.1107180E+01 -0.1731175E-26
-0.1106670E+01 -0.1776497E-26
-0.1106160E+01 -0.1822997E-26
-0.1105650E+01 -0.1870704E-26
-0.1105140E+01 -0.1919650E-26
-0.1104630E+01 -0.1969866E-26
-0.1104120E+01 -0.2021385E-26
-0.1103610E+01 -0.2074241E-26
-0.1103100E+01 -0.2128468E-26
-0.1102590E+01 -0.2184101E-26
-0.1102080E+01 -0.2241177E-26
-0.1101570E+01 -0.2299732E-26
-0.1101060E+01 -0.2359804E-26
-0.1100550E+01 -0.2421433E-26
-0.1100040E+01 -0.2484658E-26
-0.1099530E+01 -0.2549521E-26
-0.1099020E+01 -0.2616063E-26
-0.1098510E+01 -0.2684328E-26
-0.1098000E+01 -0.2754360E-26
-0.1097490E+01 -0.2826205E-26
-0.1096980E+01 -0.2899908E-26
-0.1096470E+01 -0.2975517E-26
-0.1095960E+01 -0.3053082E-26
-0.1095450E+01 -0.3132652E-26
-0.1094940E+01 -0.3214280E-26
-0.1094430E+01 -0.3298017E-26
-0.1093920E+01 -0.3383918E-26
-0.1093410E+01 -0.3472039E-26
-0.1092900E+01 -0.3562435E-26
-0.1092390E+01 -0.3655167E-26
-0.1091880E+01 -0.3750293E-26
-0.1091370E+01 -0.3847874E-26
-0.1090860E+01 -0.3947974E-26
-0.1090350E+01 -0.4050657E-26
-0.1089840E+01 -0.4155989E-26
-0.1089330E+01 -0.4264039E-26
-0.1088820E+01 -0.4374874E-26
-0.1088310E+01 -0.4488567E-26
-0.1087800E+01 -0.4605191E-26
-0.1087290E+01 -0.4724820E-26
-0.1086780E+01 -0.4847533E-26
-0.1086270E+01 -0.4973406E-26
-0.1085760E+01 -0.5102521E-26
-0.1085250E+01 -0.5234961E-26
-0.1084740E+01 -0.5370811E-26
-0.1084230E+01 -0.5510157E-26
-0.1083720E+01 -0.5653089E-26
-0.1083210E+01 -0.5799698E-26
-0.1082700E+01 -0.5950079E-26
-0.1082190E+01 -0.6104328E-26
-0.1081680E+01 -0.6262543E-26
-0.1081170E+01 -0.6424825E-26
-0.1080660E+01 -0.6591278E-26
-0.1080150E+01 -0.6762009E-26
-0.1079640E+01 -0.6937125E-26
-0.1079130E+01 -0.7116739E-26
-0.1078620E+01 -0.7300967E-26
-0.1078110E+01 -0.7489924E-26
-0.1077600E+01 -0.7683731E-26
-0.1077090E+01 -0.7882512E-26
-0.1076580E+01 -0.8086394E-26
-0.1076070E+01 -0.8295505E-26
-0.1075560E+01 -0.8509980E-26
-0.1075050E+01 -0.8729953E-26
-0.1074540E+01 -0.8955566E-26
-0.1074030E+01 -0.9186961E-26
-0.1073520E+01 -0.9424285E-26
-0.1073010E+01 -0.9667689E-26
-0.1072500E+01 -0.9917327E-26
-0.1071990E+01 -0.1017336E-25
-0.1071480E+01 -0.1043595E-25
-0.1070970E+01 -0.1070525E-25
-0.1070460E+01 -0.1098145E-25
-0.1069950E+01 -0.1126472E-25
-0.1069440E+01 -0.1155524E-25
-0.1068930E+01 -0.1185318E-25
-0.1068420E+01 -0.1215875E-25
-0.1067910E+01 -0.1247212E-25
-0.1067400E+01 -0.1279351E-25
-0.1066890E+01 -0.1312311E-25
-0.1066380E+01 -0.1346113E-25
-0.1065870E+01 -0.1380779E-25
-0.1065360E+01 -0.1416330E-25
-0.1064850E+01 -0.1452789E-25
-0.1064340E+01 -0.1490178E-25
-0.1063830E+01 -0.1528522E-25
-0.1063320E+01 -0.1567844E-25
-0.1062810E+01 -0.1608170E-25
-0.1062300E+01 -0.1649524E-25
-0.1061790E+01 -0.1691933E-25
-0.1061280E+01 -0.1735423E-25
-0.1060770E+01 -0.1780022E-25
-0.1060260E+01 -0.1825757E-25
-0.1059750E+01 -0.1872658E-25
-0.1059240E+01 -0.1920753E-25
-0.1058730E+01 -0.1970074E-25
-0.1058220E+01 -0.2020650E-25
-0.1057710E+01 -0.2072514E-25
-0.1057200E+01 -0.2125698E-25
-0.1056690E+01 -0.2180236E-25
-0.1056180E+01 -0.2236161E-25
-0.1055670E+01 -0.2293509E-25
-0.1055160E+01 -0.2352315E-25
-0.1054650E+01 -0.2412617E-25
-0.1054140E+01 -0.2474451E-25
-0.1053630E+01 -0.2537858E-25
-0.1053120E+01 -0.2602875E-25
-0.1052610E+01 -0.2669544E-25
-0.1052100E+01 -0.2737907E-25
-0.1051590E+01 -0.2808006E-25
-0.1051080E+01 -0.2879884E-25
-0.1050570E+01 -0.2953587E-25
-0.1050060E+01 -0.3029161E-25
-0.1049550E+01 -0.3106652E-25
-0.1049040E+01 -0.3186108E-25
-0.1048530E+01 -0.3267580E-25
-0.1048020E+01 -0.3351117E-25
-0.1047510E+01 -0.3436772E-25
-0.1047000E+01 -0.3524598E-25
-0.1046490E+01 -0.3614649E-25
-0.1045980E+01 -0.3706982E-25
-0.1045470E+01 -0.3801653E-25
-0.1044960E+01 -0.3898722E-25
-0.1044450E+01 -0.3998248E-25
-0.1043940E+01 -0.4100293E-25
-0.1043430E+01 -0.4204921E-25
-0.1042920E+01 -0.4312196E-25
-0.1042410E+01 -0.4422185E-25
-0.1041900E+01 -0.4534956E-25
-0.1041390E+01 -0.4650578E-25
-0.1040880E+01 -0.4769124E-25
-0.1040370E+01 -0.4890665E-25
-0.1039860E+01 -0.5015278E-25
-0.1039350E+01 -0.5143039E-25
-0.1038840E+01 -0.5274028E-25
-0.1038330E+01 -0.5408324E-25
-0.1037820E+01 -0.5546011E-25
-0.1037310E+01 -0.5687174E-25
-0.1036800E+01 -0.5831899E-25
-0.1036290E+01 -0.5980276E-25
-0.1035780E+01 -0.6132396E-25
-0.1035270E+01 -0.6288354E-25
-0.1034760E+01 -0.6448243E-25
-0.1034250E+01 -0.6612164E-25
-0.1033740E+01 -0.6780216E-25
-0.1033230E+01 -0.6952503E-25
-0.1032720E+01 -0.7129131E-25
-0.1032210E+01 -0.7310208E-25
-0.1031700E+01 -0.7495845E-25
-0.1031190E+01 -0.7686157E-25
-0.1030680E+01 -0.7881258E-25
-0.1030170E+01 -0.8081271E-25
-0.1029660E+01 -0.8286316E-25
-0.1029150E+01 -0.8496520E-25
-0.1028640E+01 -0.8712011E-25
-0.1028130E+01 -0.8932921E-25
-0.1027620E+01 -0.9159385E-25
-0.1027110E+01 -0.9391541E-25
-0.1026600E+01 -0.9629532E-25
-0.1026090E+01 -0.9873502E-25
-0.1025580E+01 -0.1012360E-24
-0.1025070E+01 -0.1037998E-24
-0.1024560E+01 -0.1064280E-24
-0.1024050E+01 -0.1091221E-24
-0.1023540E+01 -0.1118839E-24
-0.1023030E+01 -0.1147149E-24
-0.1022520E+01 -0.1176170E-24
-0.1022010E+01 -0.1205918E-24
-0.1021500E+01 -0.1236413E-24
-0.1020990E+01 -0.1267672E-24
-0.1020480E+01 -0.1299715E-24
-0.1019970E+01 -0.1332560E-24
-0.1019460E+01 -0.1366229E-24
-0.1018950E+01 -0.1400740E-24
-0.1018440E+01 -0.1436116E-24
-0.1017930E+01 -0.1472378E-24
-0.1017420E+01 -0.1509548E-24
-0.1016910E+01 -0.1547648E-24
-0.1016400E+01 -0.1586701E-24
-0.1015890E+01 -0.1626731E-24
-0.1015380E+01 -0.1667762E-24
-0.1014870E+01 -0.1709819E-24
-0.1014360E+01 -0.1752928E-24
-0.1013850E+01 -0.1797114E-24
-0.1013340E+01 -0.1842404E-24
-0.1012830E+01 -0.1888826E-24
-0.1012320E+01 -0.1936408E-24
-0.1011810E+01 -0.1985177E-24
-0.1011300E+01 -0.2035165E-24
-0.1010790E+01 -0.2086400E-24
-0.1010280E+01 -0.2138913E-24
-0.1009770E+01 -0.2192737E-24
-0.1009260E+01 -0.2247904E-24
-0.1008750E+01 -0.2304447E-24
-0.1008240E+01 -0.2362399E-24
-0.1007730E+01 -0.2421797E-24
-0.1007220E+01 -0.2482674E-24
-0.1006710E+01 -0.2545069E-24
-0.1006200E+01 -0.2609019E-24
-0.1005690E+01 -0.2674562E-24
-0.1005180E+01 -0.2741737E-24
-0.1004670E+01 -0.2810584E-24
-0.1004160E+01 -0.2881146E-24
-0.1003650E+01 -0.2953463E-24
-0.1003140E+01 -0.3027580E-24
-0.1002630E+01 -0.3103541E-24
-0.1002120E+01 -0.3181390E-24
-0.1001610E+01 -0.3261176E-24
-0.1001100E+01 -0.3342945E-24
-0.1000590E+01 -0.3426747E-24
-0.1000080E+01 -0.3512631E-24
-0.9995700E+00 -0.3600648E-24
-0.9990600E+00 -0.3690852E-24
-0.9985500E+00 -0.3783296E-24
-0.9980400E+00 -0.3878036E-24
-0.9975300E+00 -0.3975126E-24
-0.9970200E+00 -0.4074627E-24
-0.9965100E+00 -0.4176595E-24
-0.9960000E+00 -0.4281094E-24
-0.9954900E+00 -0.4388184E-24
-0.9949800E+00 -0.4497930E-24
-0.9944700E+00 -0.4610396E-24
-0.9939600E+00 -0.4725649E-24
-0.9934500E+00 -0.4843758E-24
-0.9929400E+00 -0.4964794E-24
-0.9924300E+00 -0.5088827E-24
-0.9919200E+00 -0.5215931E-24
-0.9914100E+00 -0.5346182E-24
-0.9909000E+00 -0.5479658E-24
-0.9903900E+00 -0.5616436E-24
-0.9898800E+00 -0.5756598E-24
-0.9893700E+00 -0.5900227E-24
-0.9888600E+00 -0.6047409E-24
-0.9883500E+00 -0.6198229E-24
-0.9878400E+00 -0.6352777E-24
-0.9873300E+00 -0.6511145E-24
-0.9868200E+00 -0.6673426E-24
-0.9863100E+00 -0.6839716E-24
-0.9858000E+00 -0.7010113E-24
-0.9852900E+00 -0.7184717E-24
-0.9847800E+00 -0.7363632E-24
-0.9842700E+00 -0.7546964E-24
-0.9837600E+00 -0.7734819E-24
-0.9832500E+00 -0.7927309E-24
-0.9827400E+00 -0.8124547E-24
-0.9822300E+00 -0.8326649E-24
-0.9817200E+00 -0.8533734E-24
-0.9812100E+00 -0.8745923E-24
-0.9807000E+00 -0.8963342E-24
-0.9801900E+00 -0.9186119E-24
-0.9796800E+00 -0.9414382E-24
-0.9791700E+00 -0.9648268E-24
-0.9786600E+00 -0.9887913E-24
-0.9781500E+00 -0.1013346E-23
-0.9776400E+00 -0.1038504E-23
-0.9771300E+00 -0.1064282E-23
-0.9766200E+00 -0.1090694E-23
-0.9761100E+00 -0.1117756E-23
-0.9756000E+00 -0.1145483E-23
-0.9750900E+00 -0.1173892E-23
-0.9745800E+00 -0.1202999E-23
-0.9740700E+00 -0.1232821E-23
-0.9735600E+00 -0.1263376E-23
-0.9730500E+00 -0.1294681E-23
-0.9725400E+00 -0.1326756E-23
-0.9720300E+00 -0.1359618E-23
-0.9715200E+00 -0.1393286E-23
-0.9710100E+00 -0.1427781E-23
-0.9705000E+00 -0.1463122E-23
-0.9699900E+00 -0.1499330E-23
-0.9694800E+00 -0.1536427E-23
-0.9689700E+00 -0.1574432E-23
-0.9684600E+00 -0.1613370E-23
-0.9679500E+00 -0.1653262E-23
-0.9674400E+00 -0.1694131E-23
-0.9669300E+00 -0.1736002E-23
-0.9664200E+00 -0.1778898E-23
-0.9659100E+00 -0.1822845E-23
-0.9654000E+00 -0.1867868E-23
-0.9648900E+00 -0.1913993E-23
-0.9643800E+00 -0.1961246E-23
-0.9638700E+00 -0.2009655E-23
-0.9633600E+00 -0.2059249E-23
-0.9628500E+00 -0.2110055E-23
-0.9623400E+00 -0.2162104E-23
-0.9618300E+00 -0.2215425E-23
-0.9613200E+00 -0.2270049E-23
-0.9608100E+00 -0.2326007E-23
-0.9603000E+00 -0.2383333E-23
-0.9597900E+00 -0.2442059E-23
-0.9592800E+00 -0.2502218E-23
-0.9587700E+00 -0.2563846E-23
-0.9582600E+00 -0.2626978E-23
-0.9577500E+00 -0.2691651E-23
-0.9572400E+00 -0.2757901E-23
-0.9567300E+00 -0.2825768E-23
-0.9562200E+00 -0.2895289E-23
-0.9557100E+00 -0.2966505E-23
-0.9552000E+00 -0.3039457E-23
-0.9546900E+00 -0.3114187E-23
-0.9541800E+00 -0.3190737E-23
-0.9536700E+00 -0.3269153E-23
-0.9531600E+00 -0.3349477E-23
-0.9526500E+00 -0.3431758E-23
-0.9521400E+00 -0.3516041E-23
-0.9516300E+00 -0.3602376E-23
-0.9511200E+00 -0.3690812E-23
-0.9506100E+00 -0.3781399E-23
-0.9501000E+00 -0.3874189E-23
-0.9495900E+00 -0.3969235E-23
-0.9490800E+00 -0.4066592E-23
-0.9485700E+00 -0.4166315E-23
-0.9480600E+00 -0.4268461E-23
-0.9475500E+00 -0.4373089E-23
-0.9470400E+00 -0.4480258E-23
-0.9465300E+00 -0.4590029E-23
-0.9460200E+00 -0.4702466E-23
-0.9455100E+00 -0.4817632E-23
-0.9450000E+00 -0.4935592E-23
-0.9444900E+00 -0.5056414E-23
-0.9439800E+00 -0.5180167E-23
-0.9434700E+00 -0.5306921E-23
-0.9429600E+00 -0.5436749E-23
-0.9424500E+00 -0.5569723E-23
-0.9419400E+00 -0.5705920E-23
-0.9414300E+00 -0.5845416E-23
-0.9409200E+00 -0.5988292E-23
-0.9404100E+00 -0.6134628E-23
-0.9399000E+00 -0.6284506E-23
-0.9393900E+00 -0.6438013E-23
-0.9388800E+00 -0.6595234E-23
-0.9383700E+00 -0.6756260E-23
-0.9378600E+00 -0.6921181E-23
-0.9373500E+00 -0.7090090E-23
-0.9368400E+00 -0.7263083E-23
-0.9363300E+00 -0.7440259E-23
-0.9358200E+00 -0.7621717E-23
-0.9353100E+00 -0.7807559E-23
-0.9348000E+00 -0.7997892E-23
-0.9342900E+00 -0.8192821E-23
-0.9337800E+00 -0.8392458E-23
-0.9332700E+00 -0.8596914E-23
-0.9327600E+00 -0.8806306E-23
-0.9322500E+00 -0.9020751E-23
-0.9317400E+00 -0.9240370E-23
-0.9312300E+00 -0.9465286E-23
-0.9307200E+00 -0.9695626E-23
-0.9302100E+00 -0.9931520E-23
-0.9297000E+00 -0.1017310E-22
-0.9291900E+00 -0.1042050E-22
-0.9286800E+00 -0.1067387E-22
-0.9281700E+00 -0.1093333E-22
-0.9276600E+00 -0.1119905E-22
-0.9271500E+00 -0.1147116E-22
-0.9266400E+00 -0.1174982E-22
-0.9261300E+00 -0.1203519E-22
-0.9256200E+00 -0.1232742E-22
-0.9251100E+00 -0.1262669E-22
-0.9246000E+00 -0.1293315E-22
-0.9240900E+00 -0.1324698E-22
-0.9235800E+00 -0.1356835E-22
-0.9230700E+00 -0.1389745E-22
-0.9225600E+00 -0.1423446E-22
-0.9220500E+00 -0.1457956E-22
-0.9215400E+00 -0.1493295E-22
-0.9210300E+00 -0.1529483E-22
-0.9205200E+00 -0.1566539E-22
-0.9200100E+00 -0.1604485E-22
-0.9195000E+00 -0.1643342E-22
-0.9189900E+00 -0.1683131E-22
-0.9184800E+00 -0.1723874E-22
-0.9179700E+00 -0.1765594E-22
-0.9174600E+00 -0.1808314E-22
-0.9169500E+00 -0.1852059E-22
-0.9164400E+00 -0.1896852E-22
-0.9159300E+00 -0.1942717E-22
-0.9154200E+00 -0.1989682E-22
-0.9149100E+00 -0.2037772E-22
-0.9144000E+00 -0.2087012E-22
-0.9138900E+00 -0.2137432E-22
-0.9133800E+00 -0.2189058E-22
-0.9128700E+00 -0.2241920E-22
-0.9123600E+00 -0.2296046E-22
-0.9118500E+00 -0.2351466E-22
-0.9113400E+00 -0.2408212E-22
-0.9108300E+00 -0.2466314E-22
-0.9103200E+00 -0.2525805E-22
-0.9098100E+00 -0.2586717E-22
-0.9093000E+00 -0.2649085E-22
-0.9087900E+00 -0.2712942E-22
-0.9082800E+00 -0.2778323E-22
-0.9077700E+00 -0.2845266E-22
-0.9072600E+00 -0.2913806E-22
-0.9067500E+00 -0.2983982E-22
-0.9062400E+00 -0.3055832E-22
-0.9057300E+00 -0.3129395E-22
-0.9052200E+00 -0.3204712E-22
-0.9047100E+00 -0.3281825E-22
-0.9042000E+00 -0.3360776E-22
-0.9036900E+00 -0.3441608E-22
-0.9031800E+00 -0.3524366E-22
-0.9026700E+00 -0.3609094E-22
-0.9021600E+00 -0.3695841E-22
-0.9016500E+00 -0.3784652E-22
-0.9011400E+00 -0.3875578E-22
-0.9006300E+00 -0.3968667E-22
-0.9001200E+00 -0.4063971E-22
-0.8996100E+00 -0.4161541E-22
-0.8991000E+00 -0.4261432E-22
-0.8985900E+00 -0.4363698E-22
-0.8980800E+00 -0.4468395E-22
-0.8975700E+00 -0.4575580E-22
-0.8970600E+00 -0.4685311E-22
-0.8965500E+00 -0.4797649E-22
-0.8960400E+00 -0.4912655E-22
-0.8955300E+00 -0.5030392E-22
-0.8950200E+00 -0.5150923E-22
-0.8945100E+00 -0.5274315E-22
-0.8940000E+00 -0.5400634E-22
-0.8934900E+00 -0.5529950E-22
-0.8929800E+00 -0.5662333E-22
-0.8924700E+00 -0.5797854E-22
-0.8919600E+00 -0.5936588E-22
-0.8914500E+00 -0.6078610E-22
-0.8909400E+00 -0.6223997E-22
-0.8904300E+00 -0.6372829E-22
-0.8899200E+00 -0.6525185E-22
-0.8894100E+00 -0.6681149E-22
-0.8889000E+00 -0.6840805E-22
-0.8883900E+00 -0.7004240E-22
-0.8878800E+00 -0.7171542E-22
-0.8873700E+00 -0.7342802E-22
-0.8868600E+00 -0.7518113E-22
-0.8863500E+00 -0.7697568E-22
-0.8858400E+00 -0.7881266E-22
-0.8853300E+00 -0.8069306E-22
-0.8848200E+00 -0.8261789E-22
-0.8843100E+00 -0.8458819E-22
-0.8838000E+00 -0.8660503E-22
-0.8832900E+00 -0.8866948E-22
-0.8827800E+00 -0.9078267E-22
-0.8822700E+00 -0.9294574E-22
-0.8817600E+00 -0.9515985E-22
-0.8812500E+00 -0.9742619E-22
-0.8807400E+00 -0.9974598E-22
-0.8802300E+00 -0.1021205E-21
-0.8797200E+00 -0.1045510E-21
-0.8792100E+00 -0.1070387E-21
-0.8787000E+00 -0.1095851E-21
-0.8781900E+00 -0.1121915E-21
-0.8776800E+00 -0.1148593E-21
-0.8771700E+00 -0.1175899E-21
-0.8766600E+00 -0.1203848E-21
-0.8761500E+00 -0.1232454E-21
-0.8756400E+00 -0.1261734E-21
-0.8751300E+00 -0.1291703E-21
-0.8746200E+00 -0.1322377E-21
-0.8741100E+00 -0.1353772E-21
-0.8736000E+00 -0.1385905E-21
-0.8730900E+00 -0.1418793E-21
-0.8725800E+00 -0.1452454E-21
-0.8720700E+00 -0.1486906E-21
-0.8715600E+00 -0.1522167E-21
-0.8710500E+00 -0.1558256E-21
-0.8705400E+00 -0.1595192E-21
-0.8700300E+00 -0.1632996E-21
-0.8695200E+00 -0.1671686E-21
-0.8690100E+00 -0.1711285E-21
-0.8685000E+00 -0.1751812E-21
-0.8679900E+00 -0.1793289E-21
-0.8674800E+00 -0.1835739E-21
-0.8669700E+00 -0.1879184E-21
-0.8664600E+00 -0.1923647E-21
-0.8659500E+00 -0.1969152E-21
-0.8654400E+00 -0.2015723E-21
-0.8649300E+00 -0.2063384E-21
-0.8644200E+00 -0.2112161E-21
-0.8639100E+00 -0.2162081E-21
-0.8634000E+00 -0.2213168E-21
-0.8628900E+00 -0.2265451E-21
-0.8623800E+00 -0.2318956E-21
-0.8618700E+00 -0.2373714E-21
-0.8613600E+00 -0.2429751E-21
-0.8608500E+00 -0.2487098E-21
-0.8603400E+00 -0.2545786E-21
-0.8598300E+00 -0.2605844E-21
-0.8593200E+00 -0.2667306E-21
-0.8588100E+00 -0.2730203E-21
-0.8583000E+00 -0.2794569E-21
-0.8577900E+00 -0.2860437E-21
-0.8572800E+00 -0.2927842E-21
-0.8567700E+00 -0.2996820E-21
-0.8562600E+00 -0.3067407E-21
-0.8557500E+00 -0.3139640E-21
-0.8552400E+00 -0.3213558E-21
-0.8547300E+00 -0.3289199E-21
-0.8542200E+00 -0.3366602E-21
-0.8537100E+00 -0.3445809E-21
-0.8532000E+00 -0.3526861E-21
-0.8526900E+00 -0.3609801E-21
-0.8521800E+00 -0.3694672E-21
-0.8516700E+00 -0.3781518E-21
-0.8511600E+00 -0.3870385E-21
-0.8506500E+00 -0.3961320E-21
-0.8501400E+00 -0.4054371E-21
-0.8496300E+00 -0.4149585E-21
-0.8491200E+00 -0.4247013E-21
-0.8486100E+00 -0.4346705E-21
-0.8481000E+00 -0.4448715E-21
-0.8475900E+00 -0.4553095E-21
-0.8470800E+00 -0.4659899E-21
-0.8465700E+00 -0.4769184E-21
-0.8460600E+00 -0.4881006E-21
-0.8455500E+00 -0.4995424E-21
-0.8450400E+00 -0.5112497E-21
-0.8445300E+00 -0.5232286E-21
-0.8440200E+00 -0.5354854E-21
-0.8435100E+00 -0.5480265E-21
-0.8430000E+00 -0.5608583E-21
-0.8424900E+00 -0.5739876E-21
-0.8419800E+00 -0.5874212E-21
-0.8414700E+00 -0.6011660E-21
-0.8409600E+00 -0.6152292E-21
-0.8404500E+00 -0.6296181E-21
-0.8399400E+00 -0.6443401E-21
-0.8394300E+00 -0.6594029E-21
-0.8389200E+00 -0.6748144E-21
-0.8384100E+00 -0.6905824E-21
-0.8379000E+00 -0.7067152E-21
-0.8373900E+00 -0.7232210E-21
-0.8368800E+00 -0.7401085E-21
-0.8363700E+00 -0.7573863E-21
-0.8358600E+00 -0.7750635E-21
-0.8353500E+00 -0.7931491E-21
-0.8348400E+00 -0.8116524E-21
-0.8343300E+00 -0.8305831E-21
-0.8338200E+00 -0.8499509E-21
-0.8333100E+00 -0.8697658E-21
-0.8328000E+00 -0.8900380E-21
-0.8322900E+00 -0.9107779E-21
-0.8317800E+00 -0.9319962E-21
-0.8312700E+00 -0.9537038E-21
-0.8307600E+00 -0.9759120E-21
-0.8302500E+00 -0.9986321E-21
-0.8297400E+00 -0.1021876E-20
-0.8292300E+00 -0.1045655E-20
-0.8287200E+00 -0.1069982E-20
-0.8282100E+00 -0.1094869E-20
-0.8277000E+00 -0.1120330E-20
-0.8271900E+00 -0.1146376E-20
-0.8266800E+00 -0.1173022E-20
-0.8261700E+00 -0.1200281E-20
-0.8256600E+00 -0.1228167E-20
-0.8251500E+00 -0.1256694E-20
-0.8246400E+00 -0.1285877E-20
-0.8241300E+00 -0.1315731E-20
-0.8236200E+00 -0.1346271E-20
-0.8231100E+00 -0.1377512E-20
-0.8226000E+00 -0.1409472E-20
-0.8220900E+00 -0.1442165E-20
-0.8215800E+00 -0.1475609E-20
-0.8210700E+00 -0.1509821E-20
-0.8205600E+00 -0.1544817E-20
-0.8200500E+00 -0.1580617E-20
-0.8195400E+00 -0.1617237E-20
-0.8190300E+00 -0.1654698E-20
-0.8185200E+00 -0.1693017E-20
-0.8180100E+00 -0.1732215E-20
-0.8175000E+00 -0.1772311E-20
-0.8169900E+00 -0.1813326E-20
-0.8164800E+00 -0.1855279E-20
-0.8159700E+00 -0.1898194E-20
-0.8154600E+00 -0.1942091E-20
-0.8149500E+00 -0.1986993E-20
-0.8144400E+00 -0.2032922E-20
-0.8139300E+00 -0.2079902E-20
-0.8134200E+00 -0.2127957E-20
-0.8129100E+00 -0.2177110E-20
-0.8124000E+00 -0.2227387E-20
-0.8118900E+00 -0.2278813E-20
-0.8113800E+00 -0.2331414E-20
-0.8108700E+00 -0.2385217E-20
-0.8103600E+00 -0.2440248E-20
-0.8098500E+00 -0.2496536E-20
-0.8093400E+00 -0.2554109E-20
-0.8088300E+00 -0.2612996E-20
-0.8083200E+00 -0.2673227E-20
-0.8078100E+00 -0.2734832E-20
-0.8073000E+00 -0.2797841E-20
-0.8067900E+00 -0.2862288E-20
-0.8062800E+00 -0.2928204E-20
-0.8057700E+00 -0.2995622E-20
-0.8052600E+00 -0.3064576E-20
-0.8047500E+00 -0.3135101E-20
-0.8042400E+00 -0.3207232E-20
-0.8037300E+00 -0.3281006E-20
-0.8032200E+00 -0.3356460E-20
-0.8027100E+00 -0.3433630E-20
-0.8022000E+00 -0.3512557E-20
-0.8016900E+00 -0.3593279E-20
-0.8011800E+00 -0.3675837E-20
-0.8006700E+00 -0.3760272E-20
-0.8001600E+00 -0.3846626E-20
-0.7996500E+00 -0.3934943E-20
-0.7991400E+00 -0.4025266E-20
-0.7986300E+00 -0.4117642E-20
-0.7981200E+00 -0.4212115E-20
-0.7976100E+00 -0.4308734E-20
-0.7971000E+00 -0.4407545E-20
-0.7965900E+00 -0.4508600E-20
-0.7960800E+00 -0.4611947E-20
-0.7955700E+00 -0.4717638E-20
-0.7950600E+00 -0.4825727E-20
-0.7945500E+00 -0.4936266E-20
-0.7940400E+00 -0.5049311E-20
-0.7935300E+00 -0.5164918E-20
-0.7930200E+00 -0.5283144E-20
-0.7925100E+00 -0.5404048E-20
-0.7920000E+00 -0.5527691E-20
-0.7914900E+00 -0.5654132E-20
-0.7909800E+00 -0.5783436E-20
-0.7904700E+00 -0.5915665E-20
-0.7899600E+00 -0.6050886E-20
-0.7894500E+00 -0.6189165E-20
-0.7889400E+00 -0.6330572E-20
-0.7884300E+00 -0.6475175E-20
-0.7879200E+00 -0.6623046E-20
-0.7874100E+00 -0.6774258E-20
-0.7869000E+00 -0.6928886E-20
-0.7863900E+00 -0.7087007E-20
-0.7858800E+00 -0.7248698E-20
-0.7853700E+00 -0.7414040E-20
-0.7848600E+00 -0.7583114E-20
-0.7843500E+00 -0.7756002E-20
-0.7838400E+00 -0.7932790E-20
-0.7833300E+00 -0.8113565E-20
-0.7828200E+00 -0.8298416E-20
-0.7823100E+00 -0.8487435E-20
-0.7818000E+00 -0.8680713E-20
-0.7812900E+00 -0.8878346E-20
-0.7807800E+00 -0.9080431E-20
-0.7802700E+00 -0.9287066E-20
-0.7797600E+00 -0.9498353E-20
-0.7792500E+00 -0.9714396E-20
-0.7787400E+00 -0.9935301E-20
-0.7782300E+00 -0.1016118E-19
-0.7777200E+00 -0.1039213E-19
-0.7772100E+00 -0.1062828E-19
-0.7767000E+00 -0.1086973E-19
-0.7761900E+00 -0.1111662E-19
-0.7756800E+00 -0.1136905E-19
-0.7751700E+00 -0.1162715E-19
-0.7746600E+00 -0.1189105E-19
-0.7741500E+00 -0.1216088E-19
-0.7736400E+00 -0.1243676E-19
-0.7731300E+00 -0.1271884E-19
-0.7726200E+00 -0.1300724E-19
-0.7721100E+00 -0.1330212E-19
-0.7716000E+00 -0.1360361E-19
-0.7710900E+00 -0.1391186E-19
-0.7705800E+00 -0.1422702E-19
-0.7700700E+00 -0.1454924E-19
-0.7695600E+00 -0.1487869E-19
-0.7690500E+00 -0.1521551E-19
-0.7685400E+00 -0.1555988E-19
-0.7680300E+00 -0.1591197E-19
-0.7675200E+00 -0.1627193E-19
-0.7670100E+00 -0.1663995E-19
-0.7665000E+00 -0.1701621E-19
-0.7659900E+00 -0.1740088E-19
-0.7654800E+00 -0.1779415E-19
-0.7649700E+00 -0.1819622E-19
-0.7644600E+00 -0.1860728E-19
-0.7639500E+00 -0.1902752E-19
-0.7634400E+00 -0.1945716E-19
-0.7629300E+00 -0.1989639E-19
-0.7624200E+00 -0.2034542E-19
-0.7619100E+00 -0.2080449E-19
-0.7614000E+00 -0.2127380E-19
-0.7608900E+00 -0.2175359E-19
-0.7603800E+00 -0.2224408E-19
-0.7598700E+00 -0.2274551E-19
-0.7593600E+00 -0.2325812E-19
-0.7588500E+00 -0.2378216E-19
-0.7583400E+00 -0.2431788E-19
-0.7578300E+00 -0.2486554E-19
-0.7573200E+00 -0.2542540E-19
-0.7568100E+00 -0.2599772E-19
-0.7563000E+00 -0.2658280E-19
-0.7557900E+00 -0.2718089E-19
-0.7552800E+00 -0.2779230E-19
-0.7547700E+00 -0.2841731E-19
-0.7542600E+00 -0.2905622E-19
-0.7537500E+00 -0.2970934E-19
-0.7532400E+00 -0.3037698E-19
-0.7527300E+00 -0.3105947E-19
-0.7522200E+00 -0.3175711E-19
-0.7517100E+00 -0.3247026E-19
-0.7512000E+00 -0.3319925E-19
-0.7506900E+00 -0.3394443E-19
-0.7501800E+00 -0.3470615E-19
-0.7496700E+00 -0.3548478E-19
-0.7491600E+00 -0.3628068E-19
-0.7486500E+00 -0.3709424E-19
-0.7481400E+00 -0.3792584E-19
-0.7476300E+00 -0.3877587E-19
-0.7471200E+00 -0.3964476E-19
-0.7466100E+00 -0.4053289E-19
-0.7461000E+00 -0.4144071E-19
-0.7455900E+00 -0.4236863E-19
-0.7450800E+00 -0.4331710E-19
-0.7445700E+00 -0.4428657E-19
-0.7440600E+00 -0.4527750E-19
-0.7435500E+00 -0.4629036E-19
-0.7430400E+00 -0.4732563E-19
-0.7425300E+00 -0.4838380E-19
-0.7420200E+00 -0.4946537E-19
-0.7415100E+00 -0.5057085E-19
-0.7410000E+00 -0.5170077E-19
-0.7404900E+00 -0.5285565E-19
-0.7399800E+00 -0.5403605E-19
-0.7394700E+00 -0.5524253E-19
-0.7389600E+00 -0.5647564E-19
-0.7384500E+00 -0.5773598E-19
-0.7379400E+00 -0.5902414E-19
-0.7374300E+00 -0.6034072E-19
-0.7369200E+00 -0.6168635E-19
-0.7364100E+00 -0.6306166E-19
-0.7359000E+00 -0.6446730E-19
-0.7353900E+00 -0.6590392E-19
-0.7348800E+00 -0.6737221E-19
-0.7343700E+00 -0.6887285E-19
-0.7338600E+00 -0.7040656E-19
-0.7333500E+00 -0.7197404E-19
-0.7328400E+00 -0.7357605E-19
-0.7323300E+00 -0.7521332E-19
-0.7318200E+00 -0.7688663E-19
-0.7313100E+00 -0.7859675E-19
-0.7308000E+00 -0.8034450E-19
-0.7302900E+00 -0.8213069E-19
-0.7297800E+00 -0.8395614E-19
-0.7292700E+00 -0.8582173E-19
-0.7287600E+00 -0.8772831E-19
-0.7282500E+00 -0.8967678E-19
-0.7277400E+00 -0.9166805E-19
-0.7272300E+00 -0.9370304E-19
-0.7267200E+00 -0.9578271E-19
-0.7262100E+00 -0.9790802E-19
-0.7257000E+00 -0.1000800E-18
-0.7251900E+00 -0.1022996E-18
-0.7246800E+00 -0.1045678E-18
-0.7241700E+00 -0.1068858E-18
-0.7236600E+00 -0.1092546E-18
-0.7231500E+00 -0.1116753E-18
-0.7226400E+00 -0.1141491E-18
-0.7221300E+00 -0.1166770E-18
-0.7216200E+00 -0.1192602E-18
-0.7211100E+00 -0.1219001E-18
-0.7206000E+00 -0.1245976E-18
-0.7200900E+00 -0.1273543E-18
-0.7195800E+00 -0.1301712E-18
-0.7190700E+00 -0.1330497E-18
-0.7185600E+00 -0.1359911E-18
-0.7180500E+00 -0.1389969E-18
-0.7175400E+00 -0.1420683E-18
-0.7170300E+00 -0.1452068E-18
-0.7165200E+00 -0.1484139E-18
-0.7160100E+00 -0.1516910E-18
-0.7155000E+00 -0.1550396E-18
-0.7149900E+00 -0.1584613E-18
-0.7144800E+00 -0.1619577E-18
-0.7139700E+00 -0.1655304E-18
-0.7134600E+00 -0.1691809E-18
-0.7129500E+00 -0.1729111E-18
-0.7124400E+00 -0.1767226E-18
-0.7119300E+00 -0.1806172E-18
-0.7114200E+00 -0.1845966E-18
-0.7109100E+00 -0.1886627E-18
-0.7104000E+00 -0.1928174E-18
-0.7098900E+00 -0.1970625E-18
-0.7093800E+00 -0.2014000E-18
-0.7088700E+00 -0.2058319E-18
-0.7083600E+00 -0.2103603E-18
-0.7078500E+00 -0.2149871E-18
-0.7073400E+00 -0.2197146E-18
-0.7068300E+00 -0.2245449E-18
-0.7063200E+00 -0.2294801E-18
-0.7058100E+00 -0.2345227E-18
-0.7053000E+00 -0.2396747E-18
-0.7047900E+00 -0.2449387E-18
-0.7042800E+00 -0.2503170E-18
-0.7037700E+00 -0.2558121E-18
-0.7032600E+00 -0.2614264E-18
-0.7027500E+00 -0.2671626E-18
-0.7022400E+00 -0.2730232E-18
-0.7017300E+00 -0.2790110E-18
-0.7012200E+00 -0.2851285E-18
-0.7007100E+00 -0.2913787E-18
-0.7002000E+00 -0.2977644E-18
-0.6996900E+00 -0.3042884E-18
-0.6991800E+00 -0.3109538E-18
-0.6986700E+00 -0.3177634E-18
-0.6981600E+00 -0.3247206E-18
-0.6976500E+00 -0.3318283E-18
-0.6971400E+00 -0.3390898E-18
-0.6966300E+00 -0.3465084E-18
-0.6961200E+00 -0.3540874E-18
-0.6956100E+00 -0.3618304E-18
-0.6951000E+00 -0.3697407E-18
-0.6945900E+00 -0.3778219E-18
-0.6940800E+00 -0.3860777E-18
-0.6935700E+00 -0.3945119E-18
-0.6930600E+00 -0.4031282E-18
-0.6925500E+00 -0.4119305E-18
-0.6920400E+00 -0.4209229E-18
-0.6915300E+00 -0.4301092E-18
-0.6910200E+00 -0.4394938E-18
-0.6905100E+00 -0.4490807E-18