-0.1200000E+01 -0.4044119E-10
-0.1199490E+01 -0.4111380E-10
-0.1198980E+01 -0.4179739E-10
-0.1198470E+01 -0.4249213E-10
-0.1197960E+01 -0.4319821E-10
-0.1197450E+01 -0.4391580E-10
-0.1196940E+01 -0.4464507E-10
-0.1196430E+01 -0.4538621E-10
-0.1195920E+01 -0.4613940E-10
-0.1195410E+01 -0.4690483E-10
-0.1194900E+01 -0.4768269E-10
-0.1194390E+01 -0.4847317E-10
-0.1193880E+01 -0.4927648E-10
-0.1193370E+01 -0.5009281E-10
-0.1192860E+01 -0.5092237E-10
-0.1192350E+01 -0.5176538E-10
-0.1191840E+01 -0.5262206E-10
-0.1191330E+01 -0.5349261E-10
-0.1190820E+01 -0.5437727E-10
-0.1190310E+01 -0.5527626E-10
-0.1189800E+01 -0.5618982E-10
-0.1189290E+01 -0.5711817E-10
-0.1188780E+01 -0.5806157E-10
-0.1188270E+01 -0.5902025E-10
-0.1187760E+01 -0.5999447E-10
-0.1187250E+01 -0.6098445E-10
-0.1186740E+01 -0.6199047E-10
-0.1186230E+01 -0.6301276E-10
-0.1185720E+01 -0.6405159E-10
-0.1185210E+01 -0.6510722E-10
-0.1184700E+01 -0.6617990E-10
-0.1184190E+01 -0.6726990E-10
-0.1183680E+01 -0.6837751E-10
-0.1183170E+01 -0.6950297E-10
-0.1182660E+01 -0.7064656E-10
-0.1182150E+01 -0.7180859E-10
-0.1181640E+01 -0.7298932E-10
-0.1181130E+01 -0.7418906E-10
-0.1180620E+01 -0.7540809E-10
-0.1180110E+01 -0.7664672E-10
-0.1179600E+01 -0.7790527E-10
-0.1179090E+01 -0.7918405E-10
-0.1178580E+01 -0.8048337E-10
-0.1178070E+01 -0.8180356E-10
-0.1177560E+01 -0.8314496E-10
-0.1177050E+01 -0.8450791E-10
-0.1176540E+01 -0.8589274E-10
-0.1176030E+01 -0.8729981E-10
-0.1175520E+01 -0.8872948E-10
-0.1175010E+01 -0.9018208E-10
-0.1174500E+01 -0.9165801E-10
-0.1173990E+01 -0.9315761E-10
-0.1173480E+01 -0.9468126E-10
-0.1172970E+01 -0.9622933E-10
-0.1172460E+01 -0.9780221E-10
-0.1171950E+01 -0.9940029E-10
-0.1171440E+01 -0.1010239E-09
-0.1170930E+01 -0.1026736E-09
-0.1170420E+01 -0.1043496E-09
-0.1169910E+01 -0.1060524E-09
-0.1169400E+01 -0.1077824E-09
-0.1168890E+01 -0.1095401E-09
-0.1168380E+01 -0.1113258E-09
-0.1167870E+01 -0.1131400E-09
-0.1167360E+01 -0.1149831E-09
-0.1166850E+01 -0.1168556E-09
-0.1166340E+01 -0.1187579E-09
-0.1165830E+01 -0.1206906E-09
-0.1165320E+01 -0.1226540E-09
-0.1164810E+01 -0.1246487E-09
-0.1164300E+01 -0.1266751E-09
-0.1163790E+01 -0.1287339E-09
-0.1163280E+01 -0.1308253E-09
-0.1162770E+01 -0.1329501E-09
-0.1162260E+01 -0.1351087E-09
-0.1161750E+01 -0.1373016E-09
-0.1161240E+01 -0.1395293E-09
-0.1160730E+01 -0.1417925E-09
-0.1160220E+01 -0.1440917E-09
-0.1159710E+01 -0.1464273E-09
-0.1159200E+01 -0.1488001E-09
-0.1158690E+01 -0.1512104E-09
-0.1158180E+01 -0.1536591E-09
-0.1157670E+01 -0.1561465E-09
-0.1157160E+01 -0.1586734E-09
-0.1156650E+01 -0.1612403E-09
-0.1156140E+01 -0.1638478E-09
-0.1155630E+01 -0.1664966E-09
-0.1155120E+01 -0.1691873E-09
-0.1154610E+01 -0.1719205E-09
-0.1154100E+01 -0.1746970E-09
-0.1153590E+01 -0.1775173E-09
-0.1153080E+01 -0.1803822E-09
-0.1152570E+01 -0.1832923E-09
-0.1152060E+01 -0.1862483E-09
-0.1151550E+01 -0.1892510E-09
-0.1151040E+01 -0.1923011E-09
-0.1150530E+01 -0.1953993E-09
-0.1150020E+01 -0.1985464E-09
-0.1149510E+01 -0.2017431E-09
-0.1149000E+01 -0.2049902E-09
-0.1148490E+01 -0.2082885E-09
-0.1147980E+01 -0.2116387E-09
-0.1147470E+01 -0.2150417E-09
-0.1146960E+01 -0.2184982E-09
-0.1146450E+01 -0.2220092E-09
-0.1145940E+01 -0.2255754E-09
-0.1145430E+01 -0.2291976E-09
-0.1144920E+01 -0.2328767E-09
-0.1144410E+01 -0.2366137E-09
-0.1143900E+01 -0.2404093E-09
-0.1143390E+01 -0.2442646E-09
-0.1142880E+01 -0.2481803E-09
-0.1142370E+01 -0.2521574E-09
-0.1141860E+01 -0.2561968E-09
-0.1141350E+01 -0.2602996E-09
-0.1140840E+01 -0.2644666E-09
-0.1140330E+01 -0.2686989E-09
-0.1139820E+01 -0.2729974E-09
-0.1139310E+01 -0.2773633E-09
-0.1138800E+01 -0.2817974E-09
-0.1138290E+01 -0.2863009E-09
-0.1137780E+01 -0.2908749E-09
-0.1137270E+01 -0.2955203E-09
-0.1136760E+01 -0.3002383E-09
-0.1136250E+01 -0.3050300E-09
-0.1135740E+01 -0.3098966E-09
-0.1135230E+01 -0.3148392E-09
-0.1134720E+01 -0.3198588E-09
-0.1134210E+01 -0.3249568E-09
-0.1133700E+01 -0.3301343E-09
-0.1133190E+01 -0.3353925E-09
-0.1132680E+01 -0.3407327E-09
-0.1132170E+01 -0.3461560E-09
-0.1131660E+01 -0.3516638E-09
-0.1131150E+01 -0.3572573E-09
-0.1130640E+01 -0.3629378E-09
-0.1130130E+01 -0.3687067E-09
-0.1129620E+01 -0.3745652E-09
-0.1129110E+01 -0.3805148E-09
-0.1128600E+01 -0.3865568E-09
-0.1128090E+01 -0.3926926E-09
-0.1127580E+01 -0.3989237E-09
-0.1127070E+01 -0.4052515E-09
-0.1126560E+01 -0.4116774E-09
-0.1126050E+01 -0.4182030E-09
-0.1125540E+01 -0.4248298E-09
-0.1125030E+01 -0.4315592E-09
-0.1124520E+01 -0.4383929E-09
-0.1124010E+01 -0.4453324E-09
-0.1123500E+01 -0.4523794E-09
-0.1122990E+01 -0.4595355E-09
-0.1122480E+01 -0.4668023E-09
-0.1121970E+01 -0.4741814E-09
-0.1121460E+01 -0.4816746E-09
-0.1120950E+01 -0.4892837E-09
-0.1120440E+01 -0.4970103E-09
-0.1119930E+01 -0.5048563E-09
-0.1119420E+01 -0.5128233E-09
-0.1118910E+01 -0.5209134E-09
-0.1118400E+01 -0.5291282E-09
-0.1117890E+01 -0.5374697E-09
-0.1117380E+01 -0.5459397E-09
-0.1116870E+01 -0.5545404E-09
-0.1116360E+01 -0.5632734E-09
-0.1115850E+01 -0.5721409E-09
-0.1115340E+01 -0.5811450E-09
-0.1114830E+01 -0.5902875E-09
-0.1114320E+01 -0.5995707E-09
-0.1113810E+01 -0.6089966E-09
-0.1113300E+01 -0.6185673E-09
-0.1112790E+01 -0.6282851E-09
-0.1112280E+01 -0.6381521E-09
-0.1111770E+01 -0.6481707E-09
-0.1111260E+01 -0.6583430E-09
-0.1110750E+01 -0.6686713E-09
-0.1110240E+01 -0.6791581E-09
-0.1109730E+01 -0.6898057E-09
-0.1109220E+01 -0.7006165E-09
-0.1108710E+01 -0.7115930E-09
-0.1108200E+01 -0.7227375E-09
-0.1107690E+01 -0.7340527E-09
-0.1107180E+01 -0.7455410E-09
-0.1106670E+01 -0.7572051E-09
-0.1106160E+01 -0.7690476E-09
-0.1105650E+01 -0.7810712E-09
-0.1105140E+01 -0.7932784E-09
-0.1104630E+01 -0.8056721E-09
-0.1104120E+01 -0.8182551E-09
-0.1103610E+01 -0.8310302E-09
-0.1103100E+01 -0.8440001E-09
-0.1102590E+01 -0.8571679E-09
-0.1102080E+01 -0.8705365E-09
-0.1101570E+01 -0.8841088E-09
-0.1101060E+01 -0.8978879E-09
-0.1100550E+01 -0.9118768E-09
-0.1100040E+01 -0.9260787E-09
-0.1099530E+01 -0.9404968E-09
-0.1099020E+01 -0.9551342E-09
-0.1098510E+01 -0.9699942E-09
-0.1098000E+01 -0.9850801E-09
-0.1097490E+01 -0.1000395E-08
-0.1096980E+01 -0.1015943E-08
-0.1096470E+01 -0.1031727E-08
-0.1095960E+01 -0.1047751E-08
-0.1095450E+01 -0.1064018E-08
-0.1094940E+01 -0.1080532E-08
-0.1094430E+01 -0.1097296E-08
-0.1093920E+01 -0.1114314E-08
-0.1093410E+01 -0.1131590E-08
-0.1092900E+01 -0.1149128E-08
-0.1092390E+01 -0.1166932E-08
-0.1091880E+01 -0.1185005E-08
-0.1091370E+01 -0.1203351E-08
-0.1090860E+01 -0.1221975E-08
-0.1090350E+01 -0.1240880E-08
-0.1089840E+01 -0.1260072E-08
-0.1089330E+01 -0.1279553E-08
-0.1088820E+01 -0.1299328E-08
-0.1088310E+01 -0.1319402E-08
-0.1087800E+01 -0.1339779E-08
-0.1087290E+01 -0.1360463E-08
-0.1086780E+01 -0.1381460E-08
-0.1086270E+01 -0.1402772E-08
-0.1085760E+01 -0.1424406E-08
-0.1085250E+01 -0.1446366E-08
-0.1084740E+01 -0.1468656E-08
-0.1084230E+01 -0.1491282E-08
-0.1083720E+01 -0.1514249E-08
-0.1083210E+01 -0.1537561E-08
-0.1082700E+01 -0.1561223E-08
-0.1082190E+01 -0.1585241E-08
-0.1081680E+01 -0.1609620E-08
-0.1081170E+01 -0.1634366E-08
-0.1080660E+01 -0.1659483E-08
-0.1080150E+01 -0.1684977E-08
-0.1079640E+01 -0.1710853E-08
-0.1079130E+01 -0.1737117E-08
-0.1078620E+01 -0.1763776E-08
-0.1078110E+01 -0.1790833E-08
-0.1077600E+01 -0.1818297E-08
-0.1077090E+01 -0.1846171E-08
-0.1076580E+01 -0.1874462E-08
-0.1076070E+01 -0.1903177E-08
-0.1075560E+01 -0.1932322E-08
-0.1075050E+01 -0.1961902E-08
-0.1074540E+01 -0.1991924E-08
-0.1074030E+01 -0.2022395E-08
-0.1073520E+01 -0.2053321E-08
-0.1073010E+01 -0.2084709E-08
-0.1072500E+01 -0.2116565E-08
-0.1071990E+01 -0.2148897E-08
-0.1071480E+01 -0.2181710E-08
-0.1070970E+01 -0.2215013E-08
-0.1070460E+01 -0.2248812E-08
-0.1069950E+01 -0.2283115E-08
-0.1069440E+01 -0.2317929E-08
-0.1068930E+01 -0.2353260E-08
-0.1068420E+01 -0.2389118E-08
-0.1067910E+01 -0.2425509E-08
-0.1067400E+01 -0.2462441E-08
-0.1066890E+01 -0.2499922E-08
-0.1066380E+01 -0.2537961E-08
-0.1065870E+01 -0.2576564E-08
-0.1065360E+01 -0.2615740E-08
-0.1064850E+01 -0.2655497E-08
-0.1064340E+01 -0.2695845E-08
-0.1063830E+01 -0.2736791E-08
-0.1063320E+01 -0.2778343E-08
-0.1062810E+01 -0.2820512E-08
-0.1062300E+01 -0.2863305E-08
-0.1061790E+01 -0.2906732E-08
-0.1061280E+01 -0.2950801E-08
-0.1060770E+01 -0.2995522E-08
-0.1060260E+01 -0.3040905E-08
-0.1059750E+01 -0.3086959E-08
-0.1059240E+01 -0.3133694E-08
-0.1058730E+01 -0.3181119E-08
-0.1058220E+01 -0.3229244E-08
-0.1057710E+01 -0.3278080E-08
-0.1057200E+01 -0.3327637E-08
-0.1056690E+01 -0.3377925E-08
-0.1056180E+01 -0.3428954E-08
-0.1055670E+01 -0.3480736E-08
-0.1055160E+01 -0.3533281E-08
-0.1054650E+01 -0.3586600E-08
-0.1054140E+01 -0.3640704E-08
-0.1053630E+01 -0.3695604E-08
-0.1053120E+01 -0.3751313E-08
-0.1052610E+01 -0.3807840E-08
-0.1052100E+01 -0.3865199E-08
-0.1051590E+01 -0.3923400E-08
-0.1051080E+01 -0.3982457E-08
-0.1050570E+01 -0.4042381E-08
-0.1050060E+01 -0.4103184E-08
-0.1049550E+01 -0.4164880E-08
-0.1049040E+01 -0.4227480E-08
-0.1048530E+01 -0.4290999E-08
-0.1048020E+01 -0.4355448E-08
-0.1047510E+01 -0.4420841E-08
-0.1047000E+01 -0.4487193E-08
-0.1046490E+01 -0.4554516E-08
-0.1045980E+01 -0.4622824E-08
-0.1045470E+01 -0.4692132E-08
-0.1044960E+01 -0.4762453E-08
-0.1044450E+01 -0.4833802E-08
-0.1043940E+01 -0.4906194E-08
-0.1043430E+01 -0.4979643E-08
-0.1042920E+01 -0.5054165E-08
-0.1042410E+01 -0.5129774E-08
-0.1041900E+01 -0.5206486E-08
-0.1041390E+01 -0.5284317E-08
-0.1040880E+01 -0.5363283E-08
-0.1040370E+01 -0.5443400E-08
-0.1039860E+01 -0.5524684E-08
-0.1039350E+01 -0.5607151E-08
-0.1038840E+01 -0.5690819E-08
-0.1038330E+01 -0.5775704E-08
-0.1037820E+01 -0.5861823E-08
-0.1037310E+01 -0.5949195E-08
-0.1036800E+01 -0.6037837E-08
-0.1036290E+01 -0.6127767E-08
-0.1035780E+01 -0.6219003E-08
-0.1035270E+01 -0.6311563E-08
-0.1034760E+01 -0.6405467E-08
-0.1034250E+01 -0.6500732E-08
-0.1033740E+01 -0.6597380E-08
-0.1033230E+01 -0.6695428E-08
-0.1032720E+01 -0.6794897E-08
-0.1032210E+01 -0.6895806E-08
-0.1031700E+01 -0.6998177E-08
-0.1031190E+01 -0.7102029E-08
-0.1030680E+01 -0.7207384E-08
-0.1030170E+01 -0.7314263E-08
-0.1029660E+01 -0.7422686E-08
-0.1029150E+01 -0.7532677E-08
-0.1028640E+01 -0.7644256E-08
-0.1028130E+01 -0.7757446E-08
-0.1027620E+01 -0.7872271E-08
-0.1027110E+01 -0.7988752E-08
-0.1026600E+01 -0.8106912E-08
-0.1026090E+01 -0.8226777E-08
-0.1025580E+01 -0.8348368E-08
-0.1025070E+01 -0.8471710E-08
-0.1024560E+01 -0.8596829E-08
-0.1024050E+01 -0.8723749E-08
-0.1023540E+01 -0.8852495E-08
-0.1023030E+01 -0.8983092E-08
-0.1022520E+01 -0.9115568E-08
-0.1022010E+01 -0.9249947E-08
-0.1021500E+01 -0.9386256E-08
-0.1020990E+01 -0.9524523E-08
-0.1020480E+01 -0.9664776E-08
-0.1019970E+01 -0.9807041E-08
-0.1019460E+01 -0.9951346E-08
-0.1018950E+01 -0.1009772E-07
-0.1018440E+01 -0.1024619E-07
-0.1017930E+01 -0.1039679E-07
-0.1017420E+01 -0.1054955E-07
-0.1016910E+01 -0.1070449E-07
-0.1016400E+01 -0.1086166E-07
-0.1015890E+01 -0.1102107E-07
-0.1015380E+01 -0.1118276E-07
-0.1014870E+01 -0.1134676E-07
-0.1014360E+01 -0.1151310E-07
-0.1013850E+01 -0.1168182E-07
-0.1013340E+01 -0.1185295E-07
-0.1012830E+01 -0.1202652E-07
-0.1012320E+01 -0.1220256E-07
-0.1011810E+01 -0.1238112E-07
-0.1011300E+01 -0.1256222E-07
-0.1010790E+01 -0.1274590E-07
-0.1010280E+01 -0.1293220E-07
-0.1009770E+01 -0.1312115E-07
-0.1009260E+01 -0.1331279E-07
-0.1008750E+01 -0.1350716E-07
-0.1008240E+01 -0.1370429E-07
-0.1007730E+01 -0.1390422E-07
-0.1007220E+01 -0.1410699E-07
-0.1006710E+01 -0.1431265E-07
-0.1006200E+01 -0.1452122E-07
-0.1005690E+01 -0.1473276E-07
-0.1005180E+01 -0.1494729E-07
-0.1004670E+01 -0.1516487E-07
-0.1004160E+01 -0.1538553E-07
-0.1003650E+01 -0.1560932E-07
-0.1003140E+01 -0.1583627E-07
-0.1002630E+01 -0.1606645E-07
-0.1002120E+01 -0.1629988E-07
-0.1001610E+01 -0.1653661E-07
-0.1001100E+01 -0.1677668E-07
-0.1000590E+01 -0.1702016E-07
-0.1000080E+01 -0.1726707E-07
-0.9995700E+00 -0.1751747E-07
-0.9990600E+00 -0.1777141E-07
-0.9985500E+00 -0.1802893E-07
-0.9980400E+00 -0.1829008E-07
-0.9975300E+00 -0.1855492E-07
-0.9970200E+00 -0.1882349E-07
-0.9965100E+00 -0.1909585E-07
-0.9960000E+00 -0.1937204E-07
-0.9954900E+00 -0.1965212E-07
-0.9949800E+00 -0.1993614E-07
-0.9944700E+00 -0.2022416E-07
-0.9939600E+00 -0.2051623E-07
-0.9934500E+00 -0.2081241E-07
-0.9929400E+00 -0.2111275E-07
-0.9924300E+00 -0.2141731E-07
-0.9919200E+00 -0.2172614E-07
-0.9914100E+00 -0.2203931E-07
-0.9909000E+00 -0.2235687E-07
-0.9903900E+00 -0.2267889E-07
-0.9898800E+00 -0.2300542E-07
-0.9893700E+00 -0.2333653E-07
-0.9888600E+00 -0.2367227E-07
-0.9883500E+00 -0.2401271E-07
-0.9878400E+00 -0.2435792E-07
-0.9873300E+00 -0.2470796E-07
-0.9868200E+00 -0.2506289E-07
-0.9863100E+00 -0.2542279E-07
-0.9858000E+00 -0.2578771E-07
-0.9852900E+00 -0.2615774E-07
-0.9847800E+00 -0.2653292E-07
-0.9842700E+00 -0.2691335E-07
-0.9837600E+00 -0.2729908E-07
-0.9832500E+00 -0.2769019E-07
-0.9827400E+00 -0.2808675E-07
-0.9822300E+00 -0.2848884E-07
-0.9817200E+00 -0.2889653E-07
-0.9812100E+00 -0.2930990E-07
-0.9807000E+00 -0.2972902E-07
-0.9801900E+00 -0.3015397E-07
-0.9796800E+00 -0.3058483E-07
-0.9791700E+00 -0.3102167E-07
-0.9786600E+00 -0.3146459E-07
-0.9781500E+00 -0.3191366E-07
-0.9776400E+00 -0.3236897E-07
-0.9771300E+00 -0.3283059E-07
-0.9766200E+00 -0.3329862E-07
-0.9761100E+00 -0.3377313E-07
-0.9756000E+00 -0.3425423E-07
-0.9750900E+00 -0.3474199E-07
-0.9745800E+00 -0.3523650E-07
-0.9740700E+00 -0.3573787E-07
-0.9735600E+00 -0.3624617E-07
-0.9730500E+00 -0.3676150E-07
-0.9725400E+00 -0.3728396E-07
-0.9720300E+00 -0.3781363E-07
-0.9715200E+00 -0.3835063E-07
-0.9710100E+00 -0.3889505E-07
-0.9705000E+00 -0.3944697E-07
-0.9699900E+00 -0.4000652E-07
-0.9694800E+00 -0.4057378E-07
-0.9689700E+00 -0.4114887E-07
-0.9684600E+00 -0.4173188E-07
-0.9679500E+00 -0.4232292E-07
-0.9674400E+00 -0.4292211E-07
-0.9669300E+00 -0.4352954E-07
-0.9664200E+00 -0.4414533E-07
-0.9659100E+00 -0.4476959E-07
-0.9654000E+00 -0.4540243E-07
-0.9648900E+00 -0.4604397E-07
-0.9643800E+00 -0.4669432E-07
-0.9638700E+00 -0.4735361E-07
-0.9633600E+00 -0.4802194E-07
-0.9628500E+00 -0.4869944E-07
-0.9623400E+00 -0.4938624E-07
-0.9618300E+00 -0.5008245E-07
-0.9613200E+00 -0.5078820E-07
-0.9608100E+00 -0.5150362E-07
-0.9603000E+00 -0.5222884E-07
-0.9597900E+00 -0.5296398E-07
-0.9592800E+00 -0.5370918E-07
-0.9587700E+00 -0.5446457E-07
-0.9582600E+00 -0.5523029E-07
-0.9577500E+00 -0.5600647E-07
-0.9572400E+00 -0.5679325E-07
-0.9567300E+00 -0.5759077E-07
-0.9562200E+00 -0.5839918E-07
-0.9557100E+00 -0.5921862E-07
-0.9552000E+00 -0.6004923E-07
-0.9546900E+00 -0.6089116E-07
-0.9541800E+00 -0.6174456E-07
-0.9536700E+00 -0.6260958E-07
-0.9531600E+00 -0.6348638E-07
-0.9526500E+00 -0.6437510E-07
-0.9521400E+00 -0.6527592E-07
-0.9516300E+00 -0.6618898E-07
-0.9511200E+00 -0.6711446E-07
-0.9506100E+00 -0.6805250E-07
-0.9501000E+00 -0.6900328E-07
-0.9495900E+00 -0.6996697E-07
-0.9490800E+00 -0.7094373E-07
-0.9485700E+00 -0.7193375E-07
-0.9480600E+00 -0.7293718E-07
-0.9475500E+00 -0.7395422E-07
-0.9470400E+00 -0.7498502E-07
-0.9465300E+00 -0.7602979E-07
-0.9460200E+00 -0.7708870E-07
-0.9455100E+00 -0.7816193E-07
-0.9450000E+00 -0.7924968E-07
-0.9444900E+00 -0.8035213E-07
-0.9439800E+00 -0.8146948E-07
-0.9434700E+00 -0.8260191E-07
-0.9429600E+00 -0.8374964E-07
-0.9424500E+00 -0.8491286E-07
-0.9419400E+00 -0.8609176E-07
-0.9414300E+00 -0.8728657E-07
-0.9409200E+00 -0.8849747E-07
-0.9404100E+00 -0.8972469E-07
-0.9399000E+00 -0.9096844E-07
-0.9393900E+00 -0.9222893E-07
-0.9388800E+00 -0.9350638E-07
-0.9383700E+00 -0.9480101E-07
-0.9378600E+00 -0.9611304E-07
-0.9373500E+00 -0.9744271E-07
-0.9368400E+00 -0.9879024E-07
-0.9363300E+00 -0.1001559E-06
-0.9358200E+00 -0.1015398E-06
-0.9353100E+00 -0.1029423E-06
-0.9348000E+00 -0.1043637E-06
-0.9342900E+00 -0.1058040E-06
-0.9337800E+00 -0.1072637E-06
-0.9332700E+00 -0.1087430E-06
-0.9327600E+00 -0.1102420E-06
-0.9322500E+00 -0.1117611E-06
-0.9317400E+00 -0.1133005E-06
-0.9312300E+00 -0.1148605E-06
-0.9307200E+00 -0.1164413E-06
-0.9302100E+00 -0.1180433E-06
-0.9297000E+00 -0.1196667E-06
-0.9291900E+00 -0.1213117E-06
-0.9286800E+00 -0.1229787E-06
-0.9281700E+00 -0.1246679E-06
-0.9276600E+00 -0.1263796E-06
-0.9271500E+00 -0.1281141E-06
-0.9266400E+00 -0.1298718E-06
-0.9261300E+00 -0.1316528E-06
-0.9256200E+00 -0.1334575E-06
-0.9251100E+00 -0.1352863E-06
-0.9246000E+00 -0.1371393E-06
-0.9240900E+00 -0.1390170E-06
-0.9235800E+00 -0.1409197E-06
-0.9230700E+00 -0.1428476E-06
-0.9225600E+00 -0.1448011E-06
-0.9220500E+00 -0.1467805E-06
-0.9215400E+00 -0.1487862E-06
-0.9210300E+00 -0.1508184E-06
-0.9205200E+00 -0.1528776E-06
-0.9200100E+00 -0.1549641E-06
-0.9195000E+00 -0.1570782E-06
-0.9189900E+00 -0.1592203E-06
-0.9184800E+00 -0.1613907E-06
-0.9179700E+00 -0.1635899E-06
-0.9174600E+00 -0.1658181E-06
-0.9169500E+00 -0.1680757E-06
-0.9164400E+00 -0.1703631E-06
-0.9159300E+00 -0.1726807E-06
-0.9154200E+00 -0.1750290E-06
-0.9149100E+00 -0.1774082E-06
-0.9144000E+00 -0.1798187E-06
-0.9138900E+00 -0.1822610E-06
-0.9133800E+00 -0.1847355E-06
-0.9128700E+00 -0.1872426E-06
-0.9123600E+00 -0.1897827E-06
-0.9118500E+00 -0.1923562E-06
-0.9113400E+00 -0.1949635E-06
-0.9108300E+00 -0.1976051E-06
-0.9103200E+00 -0.2002814E-06
-0.9098100E+00 -0.2029929E-06
-0.9093000E+00 -0.2057400E-06
-0.9087900E+00 -0.2085231E-06
-0.9082800E+00 -0.2113427E-06
-0.9077700E+00 -0.2141992E-06
-0.9072600E+00 -0.2170933E-06
-0.9067500E+00 -0.2200252E-06
-0.9062400E+00 -0.2229955E-06
-0.9057300E+00 -0.2260047E-06
-0.9052200E+00 -0.2290532E-06
-0.9047100E+00 -0.2321416E-06
-0.9042000E+00 -0.2352703E-06
-0.9036900E+00 -0.2384400E-06
-0.9031800E+00 -0.2416510E-06
-0.9026700E+00 -0.2449039E-06
-0.9021600E+00 -0.2481993E-06
-0.9016500E+00 -0.2515377E-06
-0.9011400E+00 -0.2549195E-06
-0.9006300E+00 -0.2583455E-06
-0.9001200E+00 -0.2618160E-06
-0.8996100E+00 -0.2653317E-06
-0.8991000E+00 -0.2688932E-06
-0.8985900E+00 -0.2725011E-06
-0.8980800E+00 -0.2761558E-06
-0.8975700E+00 -0.2798581E-06
-0.8970600E+00 -0.2836084E-06
-0.8965500E+00 -0.2874075E-06
-0.8960400E+00 -0.2912559E-06
-0.8955300E+00 -0.2951542E-06
-0.8950200E+00 -0.2991031E-06
-0.8945100E+00 -0.3031032E-06
-0.8940000E+00 -0.3071551E-06
-0.8934900E+00 -0.3112595E-06
-0.8929800E+00 -0.3154170E-06
-0.8924700E+00 -0.3196283E-06
-0.8919600E+00 -0.3238941E-06
-0.8914500E+00 -0.3282150E-06
-0.8909400E+00 -0.3325918E-06
-0.8904300E+00 -0.3370250E-06
-0.8899200E+00 -0.3415155E-06
-0.8894100E+00 -0.3460640E-06
-0.8889000E+00 -0.3506711E-06
-0.8883900E+00 -0.3553376E-06
-0.8878800E+00 -0.3600642E-06
-0.8873700E+00 -0.3648518E-06
-0.8868600E+00 -0.3697010E-06
-0.8863500E+00 -0.3746126E-06
-0.8858400E+00 -0.3795874E-06
-0.8853300E+00 -0.3846262E-06
-0.8848200E+00 -0.3897298E-06
-0.8843100E+00 -0.3948990E-06
-0.8838000E+00 -0.4001346E-06
-0.8832900E+00 -0.4054374E-06
-0.8827800E+00 -0.4108082E-06
-0.8822700E+00 -0.4162480E-06
-0.8817600E+00 -0.4217575E-06
-0.8812500E+00 -0.4273376E-06
-0.8807400E+00 -0.4329891E-06
-0.8802300E+00 -0.4387131E-06
-0.8797200E+00 -0.4445102E-06
-0.8792100E+00 -0.4503816E-06
-0.8787000E+00 -0.4563280E-06
-0.8781900E+00 -0.4623503E-06
-0.8776800E+00 -0.4684496E-06
-0.8771700E+00 -0.4746268E-06
-0.8766600E+00 -0.4808828E-06
-0.8761500E+00 -0.4872186E-06
-0.8756400E+00 -0.4936352E-06
-0.8751300E+00 -0.5001336E-06
-0.8746200E+00 -0.5067149E-06
-0.8741100E+00 -0.5133799E-06
-0.8736000E+00 -0.5201297E-06
-0.8730900E+00 -0.5269655E-06
-0.8725800E+00 -0.5338882E-06
-0.8720700E+00 -0.5408989E-06
-0.8715600E+00 -0.5479987E-06
-0.8710500E+00 -0.5551886E-06
-0.8705400E+00 -0.5624699E-06
-0.8700300E+00 -0.5698436E-06
-0.8695200E+00 -0.5773107E-06
-0.8690100E+00 -0.5848726E-06
-0.8685000E+00 -0.5925302E-06
-0.8679900E+00 -0.6002849E-06
-0.8674800E+00 -0.6081377E-06
-0.8669700E+00 -0.6160899E-06
-0.8664600E+00 -0.6241427E-06
-0.8659500E+00 -0.6322973E-06
-0.8654400E+00 -0.6405550E-06
-0.8649300E+00 -0.6489170E-06
-0.8644200E+00 -0.6573845E-06
-0.8639100E+00 -0.6659590E-06
-0.8634000E+00 -0.6746417E-06
-0.8628900E+00 -0.6834338E-06
-0.8623800E+00 -0.6923368E-06
-0.8618700E+00 -0.7013519E-06
-0.8613600E+00 -0.7104805E-06
-0.8608500E+00 -0.7197241E-06
-0.8603400E+00 -0.7290839E-06
-0.8598300E+00 -0.7385615E-06
-0.8593200E+00 -0.7481582E-06
-0.8588100E+00 -0.7578755E-06
-0.8583000E+00 -0.7677148E-06
-0.8577900E+00 -0.7776776E-06
-0.8572800E+00 -0.7877654E-06
-0.8567700E+00 -0.7979798E-06
-0.8562600E+00 -0.8083222E-06
-0.8557500E+00 -0.8187942E-06
-0.8552400E+00 -0.8293973E-06
-0.8547300E+00 -0.8401332E-06
-0.8542200E+00 -0.8510033E-06
-0.8537100E+00 -0.8620095E-06
-0.8532000E+00 -0.8731532E-06
-0.8526900E+00 -0.8844361E-06
-0.8521800E+00 -0.8958600E-06
-0.8516700E+00 -0.9074265E-06
-0.8511600E+00 -0.9191372E-06
-0.8506500E+00 -0.9309941E-06
-0.8501400E+00 -0.9429988E-06
-0.8496300E+00 -0.9551530E-06
-0.8491200E+00 -0.9674587E-06
-0.8486100E+00 -0.9799177E-06
-0.8481000E+00 -0.9925316E-06
-0.8475900E+00 -0.1005302E-05
-0.8470800E+00 -0.1018232E-05
-0.8465700E+00 -0.1031322E-05
-0.8460600E+00 -0.1044575E-05
-0.8455500E+00 -0.1057993E-05
-0.8450400E+00 -0.1071577E-05
-0.8445300E+00 -0.1085329E-05
-0.8440200E+00 -0.1099252E-05
-0.8435100E+00 -0.1113348E-05
-0.8430000E+00 -0.1127618E-05
-0.8424900E+00 -0.1142064E-05
-0.8419800E+00 -0.1156690E-05
-0.8414700E+00 -0.1171496E-05
-0.8409600E+00 -0.1186486E-05
-0.8404500E+00 -0.1201660E-05
-0.8399400E+00 -0.1217022E-05
-0.8394300E+00 -0.1232574E-05
-0.8389200E+00 -0.1248318E-05
-0.8384100E+00 -0.1264256E-05
-0.8379000E+00 -0.1280391E-05
-0.8373900E+00 -0.1296724E-05
-0.8368800E+00 -0.1313259E-05
-0.8363700E+00 -0.1329997E-05
-0.8358600E+00 -0.1346941E-05
-0.8353500E+00 -0.1364094E-05
-0.8348400E+00 -0.1381457E-05
-0.8343300E+00 -0.1399034E-05
-0.8338200E+00 -0.1416827E-05
-0.8333100E+00 -0.1434839E-05
-0.8328000E+00 -0.1453071E-05
-0.8322900E+00 -0.1471527E-05
-0.8317800E+00 -0.1490209E-05
-0.8312700E+00 -0.1509120E-05
-0.8307600E+00 -0.1528263E-05
-0.8302500E+00 -0.1547640E-05
-0.8297400E+00 -0.1567254E-05
-0.8292300E+00 -0.1587108E-05
-0.8287200E+00 -0.1607205E-05
-0.8282100E+00 -0.1627548E-05
-0.8277000E+00 -0.1648139E-05
-0.8271900E+00 -0.1668982E-05
-0.8266800E+00 -0.1690079E-05
-0.8261700E+00 -0.1711433E-05
-0.8256600E+00 -0.1733047E-05
-0.8251500E+00 -0.1754926E-05
-0.8246400E+00 -0.1777070E-05
-0.8241300E+00 -0.1799484E-05
-0.8236200E+00 -0.1822171E-05
-0.8231100E+00 -0.1845134E-05
-0.8226000E+00 -0.1868376E-05
-0.8220900E+00 -0.1891901E-05
-0.8215800E+00 -0.1915711E-05
-0.8210700E+00 -0.1939811E-05
-0.8205600E+00 -0.1964202E-05
-0.8200500E+00 -0.1988890E-05
-0.8195400E+00 -0.2013877E-05
-0.8190300E+00 -0.2039166E-05
-0.8185200E+00 -0.2064762E-05
-0.8180100E+00 -0.2090668E-05
-0.8175000E+00 -0.2116887E-05
-0.8169900E+00 -0.2143423E-05
-0.8164800E+00 -0.2170280E-05
-0.8159700E+00 -0.2197462E-05
-0.8154600E+00 -0.2224972E-05
-0.8149500E+00 -0.2252814E-05
-0.8144400E+00 -0.2280992E-05
-0.8139300E+00 -0.2309509E-05
-0.8134200E+00 -0.2338371E-05
-0.8129100E+00 -0.2367580E-05
-0.8124000E+00 -0.2397141E-05
-0.8118900E+00 -0.2427058E-05
-0.8113800E+00 -0.2457335E-05
-0.8108700E+00 -0.2487976E-05
-0.8103600E+00 -0.2518985E-05
-0.8098500E+00 -0.2550366E-05
-0.8093400E+00 -0.2582125E-05
-0.8088300E+00 -0.2614265E-05
-0.8083200E+00 -0.2646790E-05
-0.8078100E+00 -0.2679705E-05
-0.8073000E+00 -0.2713015E-05
-0.8067900E+00 -0.2746724E-05
-0.8062800E+00 -0.2780837E-05
-0.8057700E+00 -0.2815357E-05
-0.8052600E+00 -0.2850291E-05
-0.8047500E+00 -0.2885643E-05
-0.8042400E+00 -0.2921417E-05
-0.8037300E+00 -0.2957618E-05
-0.8032200E+00 -0.2994252E-05
-0.8027100E+00 -0.3031323E-05
-0.8022000E+00 -0.3068836E-05
-0.8016900E+00 -0.3106796E-05
-0.8011800E+00 -0.3145208E-05
-0.8006700E+00 -0.3184079E-05
-0.8001600E+00 -0.3223412E-05
-0.7996500E+00 -0.3263212E-05
-0.7991400E+00 -0.3303487E-05
-0.7986300E+00 -0.3344240E-05
-0.7981200E+00 -0.3385477E-05
-0.7976100E+00 -0.3427204E-05
-0.7971000E+00 -0.3469426E-05
-0.7965900E+00 -0.3512149E-05
-0.7960800E+00 -0.3555379E-05
-0.7955700E+00 -0.3599121E-05
-0.7950600E+00 -0.3643381E-05
-0.7945500E+00 -0.3688165E-05
-0.7940400E+00 -0.3733479E-05
-0.7935300E+00 -0.3779329E-05
-0.7930200E+00 -0.3825721E-05
-0.7925100E+00 -0.3872662E-05
-0.7920000E+00 -0.3920157E-05
-0.7914900E+00 -0.3968213E-05
-0.7909800E+00 -0.4016836E-05
-0.7904700E+00 -0.4066032E-05
-0.7899600E+00 -0.4115809E-05
-0.7894500E+00 -0.4166172E-05
-0.7889400E+00 -0.4217128E-05
-0.7884300E+00 -0.4268685E-05
-0.7879200E+00 -0.4320848E-05
-0.7874100E+00 -0.4373625E-05
-0.7869000E+00 -0.4427021E-05
-0.7863900E+00 -0.4481046E-05
-0.7858800E+00 -0.4535705E-05
-0.7853700E+00 -0.4591005E-05
-0.7848600E+00 -0.4646954E-05
-0.7843500E+00 -0.4703559E-05
-0.7838400E+00 -0.4760828E-05
-0.7833300E+00 -0.4818767E-05
-0.7828200E+00 -0.4877385E-05
-0.7823100E+00 -0.4936688E-05
-0.7818000E+00 -0.4996685E-05
-0.7812900E+00 -0.5057384E-05
-0.7807800E+00 -0.5118791E-05
-0.7802700E+00 -0.5180917E-05
-0.7797600E+00 -0.5243767E-05
-0.7792500E+00 -0.5307350E-05
-0.7787400E+00 -0.5371676E-05
-0.7782300E+00 -0.5436751E-05
-0.7777200E+00 -0.5502584E-05
-0.7772100E+00 -0.5569184E-05
-0.7767000E+00 -0.5636560E-05
-0.7761900E+00 -0.5704719E-05
-0.7756800E+00 -0.5773670E-05
-0.7751700E+00 -0.5843423E-05
-0.7746600E+00 -0.5913987E-05
-0.7741500E+00 -0.5985369E-05
-0.7736400E+00 -0.6057580E-05
-0.7731300E+00 -0.6130628E-05
-0.7726200E+00 -0.6204523E-05
-0.7721100E+00 -0.6279275E-05
-0.7716000E+00 -0.6354892E-05
-0.7710900E+00 -0.6431384E-05
-0.7705800E+00 -0.6508761E-05
-0.7700700E+00 -0.6587033E-05
-0.7695600E+00 -0.6666210E-05
-0.7690500E+00 -0.6746302E-05
-0.7685400E+00 -0.6827318E-05
-0.7680300E+00 -0.6909269E-05
-0.7675200E+00 -0.6992166E-05
-0.7670100E+00 -0.7076019E-05
-0.7665000E+00 -0.7160838E-05
-0.7659900E+00 -0.7246634E-05
-0.7654800E+00 -0.7333417E-05
-0.7649700E+00 -0.7421199E-05
-0.7644600E+00 -0.7509991E-05
-0.7639500E+00 -0.7599803E-05
-0.7634400E+00 -0.7690647E-05
-0.7629300E+00 -0.7782534E-05
-0.7624200E+00 -0.7875476E-05
-0.7619100E+00 -0.7969484E-05
-0.7614000E+00 -0.8064570E-05
-0.7608900E+00 -0.8160745E-05
-0.7603800E+00 -0.8258022E-05
-0.7598700E+00 -0.8356412E-05
-0.7593600E+00 -0.8455928E-05
-0.7588500E+00 -0.8556582E-05
-0.7583400E+00 -0.8658386E-05
-0.7578300E+00 -0.8761353E-05
-0.7573200E+00 -0.8865497E-05
-0.7568100E+00 -0.8970829E-05
-0.7563000E+00 -0.9077363E-05
-0.7557900E+00 -0.9185112E-05
-0.7552800E+00 -0.9294088E-05
-0.7547700E+00 -0.9404305E-05
-0.7542600E+00 -0.9515777E-05
-0.7537500E+00 -0.9628518E-05
-0.7532400E+00 -0.9742542E-05
-0.7527300E+00 -0.9857861E-05
-0.7522200E+00 -0.9974490E-05
-0.7517100E+00 -0.1009244E-04
-0.7512000E+00 -0.1021174E-04
-0.7506900E+00 -0.1033238E-04
-0.7501800E+00 -0.1045440E-04
-0.7496700E+00 -0.1057779E-04
-0.7491600E+00 -0.1070259E-04
-0.7486500E+00 -0.1082879E-04
-0.7481400E+00 -0.1095643E-04
-0.7476300E+00 -0.1108550E-04
-0.7471200E+00 -0.1121604E-04
-0.7466100E+00 -0.1134805E-04
-0.7461000E+00 -0.1148155E-04
-0.7455900E+00 -0.1161656E-04
-0.7450800E+00 -0.1175309E-04
-0.7445700E+00 -0.1189116E-04
-0.7440600E+00 -0.1203079E-04
-0.7435500E+00 -0.1217199E-04
-0.7430400E+00 -0.1231478E-04
-0.7425300E+00 -0.1245917E-04
-0.7420200E+00 -0.1260519E-04
-0.7415100E+00 -0.1275285E-04
-0.7410000E+00 -0.1290217E-04
-0.7404900E+00 -0.1305316E-04
-0.7399800E+00 -0.1320585E-04
-0.7394700E+00 -0.1336025E-04
-0.7389600E+00 -0.1351638E-04
-0.7384500E+00 -0.1367426E-04
-0.7379400E+00 -0.1383391E-04
-0.7374300E+00 -0.1399534E-04
-0.7369200E+00 -0.1415858E-04
-0.7364100E+00 -0.1432365E-04
-0.7359000E+00 -0.1449056E-04
-0.7353900E+00 -0.1465934E-04
-0.7348800E+00 -0.1482999E-04
-0.7343700E+00 -0.1500256E-04
-0.7338600E+00 -0.1517704E-04
-0.7333500E+00 -0.1535348E-04
-0.7328400E+00 -0.1553187E-04
-0.7323300E+00 -0.1571226E-04
-0.7318200E+00 -0.1589465E-04
-0.7313100E+00 -0.1607907E-04
-0.7308000E+00 -0.1626554E-04
-0.7302900E+00 -0.1645409E-04
-0.7297800E+00 -0.1664472E-04
-0.7292700E+00 -0.1683748E-04
-0.7287600E+00 -0.1703237E-04
-0.7282500E+00 -0.1722942E-04
-0.7277400E+00 -0.1742865E-04
-0.7272300E+00 -0.1763009E-04
-0.7267200E+00 -0.1783376E-04
-0.7262100E+00 -0.1803969E-04
-0.7257000E+00 -0.1824789E-04
-0.7251900E+00 -0.1845839E-04
-0.7246800E+00 -0.1867121E-04
-0.7241700E+00 -0.1888639E-04
-0.7236600E+00 -0.1910394E-04
-0.7231500E+00 -0.1932389E-04
-0.7226400E+00 -0.1954626E-04
-0.7221300E+00 -0.1977109E-04
-0.7216200E+00 -0.1999839E-04
-0.7211100E+00 -0.2022819E-04
-0.7206000E+00 -0.2046052E-04
-0.7200900E+00 -0.2069540E-04
-0.7195800E+00 -0.2093287E-04
-0.7190700E+00 -0.2117294E-04
-0.7185600E+00 -0.2141565E-04
-0.7180500E+00 -0.2166103E-04
-0.7175400E+00 -0.2190909E-04
-0.7170300E+00 -0.2215987E-04
-0.7165200E+00 -0.2241340E-04
-0.7160100E+00 -0.2266970E-04
-0.7155000E+00 -0.2292880E-04
-0.7149900E+00 -0.2319074E-04
-0.7144800E+00 -0.2345554E-04
-0.7139700E+00 -0.2372324E-04
-0.7134600E+00 -0.2399385E-04
-0.7129500E+00 -0.2426742E-04
-0.7124400E+00 -0.2454397E-04
-0.7119300E+00 -0.2482354E-04
-0.7114200E+00 -0.2510615E-04
-0.7109100E+00 -0.2539184E-04
-0.7104000E+00 -0.2568064E-04
-0.7098900E+00 -0.2597258E-04
-0.7093800E+00 -0.2626769E-04
-0.7088700E+00 -0.2656601E-04
-0.7083600E+00 -0.2686757E-04
-0.7078500E+00 -0.2717240E-04
-0.7073400E+00 -0.2748054E-04
-0.7068300E+00 -0.2779202E-04
-0.7063200E+00 -0.2810688E-04
-0.7058100E+00 -0.2842514E-04
-0.7053000E+00 -0.2874685E-04
-0.7047900E+00 -0.2907204E-04
-0.7042800E+00 -0.2940074E-04
-0.7037700E+00 -0.2973300E-04
-0.7032600E+00 -0.3006884E-04
-0.7027500E+00 -0.3040831E-04
-0.7022400E+00 -0.3075145E-04
-0.7017300E+00 -0.3109828E-04
-0.7012200E+00 -0.3144885E-04
-0.7007100E+00 -0.3180320E-04
-0.7002000E+00 -0.3216136E-04
-0.6996900E+00 -0.3252337E-04
-0.6991800E+00 -0.3288928E-04
-0.6986700E+00 -0.3325912E-04
-0.6981600E+00 -0.3363294E-04
-0.6976500E+00 -0.3401076E-04
-0.6971400E+00 -0.3439264E-04
-0.6966300E+00 -0.3477862E-04
-0.6961200E+00 -0.3516873E-04
-0.6956100E+00 -0.3556302E-04
-0.6951000E+00 -0.3596153E-04
-0.6945900E+00 -0.3636431E-04
-0.6940800E+00 -0.3677139E-04
-0.6935700E+00 -0.3718283E-04
-0.6930600E+00 -0.3759866E-04
-0.6925500E+00 -0.3801893E-04
-0.6920400E+00 -0.3844369E-04
-0.6915300E+00 -0.3887297E-04
-0.6910200E+00 -0.3930683E-04
-0.6905100E+00 -0.3974532E-04