-0.1200000E+01  0.0000000E+00
-0.1199490E+01  0.0000000E+00
-0.1198980E+01  0.0000000E+00
-0.1198470E+01  0.0000000E+00
-0.1197960E+01  0.0000000E+00
-0.1197450E+01  0.0000000E+00
-0.1196940E+01  0.0000000E+00
-0.1196430E+01  0.0000000E+00
-0.1195920E+01  0.0000000E+00
-0.1195410E+01  0.0000000E+00
-0.1194900E+01  0.0000000E+00
-0.1194390E+01  0.0000000E+00
-0.1193880E+01  0.0000000E+00
-0.1193370E+01  0.0000000E+00
-0.1192860E+01  0.0000000E+00
-0.1192350E+01  0.0000000E+00
-0.1191840E+01  0.0000000E+00
-0.1191330E+01  0.0000000E+00
-0.1190820E+01  0.0000000E+00
-0.1190310E+01  0.0000000E+00
-0.1189800E+01  0.0000000E+00
-0.1189290E+01  0.0000000E+00
-0.1188780E+01  0.0000000E+00
-0.1188270E+01  0.0000000E+00
-0.1187760E+01  0.0000000E+00
-0.1187250E+01  0.0000000E+00
-0.1186740E+01  0.0000000E+00
-0.1186230E+01  0.0000000E+00
-0.1185720E+01  0.0000000E+00
-0.1185210E+01  0.0000000E+00
-0.1184700E+01  0.0000000E+00
-0.1184190E+01  0.0000000E+00
-0.1183680E+01  0.0000000E+00
-0.1183170E+01  0.0000000E+00
-0.1182660E+01  0.0000000E+00
-0.1182150E+01  0.0000000E+00
-0.1181640E+01  0.0000000E+00
-0.1181130E+01  0.0000000E+00
-0.1180620E+01  0.0000000E+00
-0.1180110E+01  0.0000000E+00
-0.1179600E+01  0.0000000E+00
-0.1179090E+01  0.0000000E+00
-0.1178580E+01  0.0000000E+00
-0.1178070E+01  0.0000000E+00
-0.1177560E+01  0.0000000E+00
-0.1177050E+01  0.0000000E+00
-0.1176540E+01  0.0000000E+00
-0.1176030E+01  0.0000000E+00
-0.1175520E+01  0.0000000E+00
-0.1175010E+01  0.0000000E+00
-0.1174500E+01  0.0000000E+00
-0.1173990E+01  0.0000000E+00
-0.1173480E+01  0.0000000E+00
-0.1172970E+01  0.0000000E+00
-0.1172460E+01  0.0000000E+00
-0.1171950E+01  0.0000000E+00
-0.1171440E+01  0.0000000E+00
-0.1170930E+01  0.0000000E+00
-0.1170420E+01  0.0000000E+00
-0.1169910E+01  0.0000000E+00
-0.1169400E+01  0.0000000E+00
-0.1168890E+01  0.0000000E+00
-0.1168380E+01  0.0000000E+00
-0.1167870E+01  0.0000000E+00
-0.1167360E+01  0.0000000E+00
-0.1166850E+01  0.0000000E+00
-0.1166340E+01  0.0000000E+00
-0.1165830E+01  0.0000000E+00
-0.1165320E+01  0.0000000E+00
-0.1164810E+01  0.0000000E+00
-0.1164300E+01  0.0000000E+00
-0.1163790E+01  0.0000000E+00
-0.1163280E+01  0.0000000E+00
-0.1162770E+01  0.0000000E+00
-0.1162260E+01  0.0000000E+00
-0.1161750E+01  0.0000000E+00
-0.1161240E+01  0.0000000E+00
-0.1160730E+01  0.0000000E+00
-0.1160220E+01  0.0000000E+00
-0.1159710E+01  0.0000000E+00
-0.1159200E+01  0.0000000E+00
-0.1158690E+01  0.0000000E+00
-0.1158180E+01  0.0000000E+00
-0.1157670E+01  0.0000000E+00
-0.1157160E+01  0.0000000E+00
-0.1156650E+01  0.0000000E+00
-0.1156140E+01  0.0000000E+00
-0.1155630E+01  0.0000000E+00
-0.1155120E+01  0.0000000E+00
-0.1154610E+01  0.0000000E+00
-0.1154100E+01  0.0000000E+00
-0.1153590E+01  0.0000000E+00
-0.1153080E+01  0.0000000E+00
-0.1152570E+01  0.0000000E+00
-0.1152060E+01  0.0000000E+00
-0.1151550E+01  0.0000000E+00
-0.1151040E+01  0.0000000E+00
-0.1150530E+01  0.0000000E+00
-0.1150020E+01  0.0000000E+00
-0.1149510E+01  0.0000000E+00
-0.1149000E+01  0.0000000E+00
-0.1148490E+01  0.0000000E+00
-0.1147980E+01  0.0000000E+00
-0.1147470E+01  0.0000000E+00
-0.1146960E+01  0.0000000E+00
-0.1146450E+01  0.0000000E+00
-0.1145940E+01  0.0000000E+00
-0.1145430E+01  0.0000000E+00
-0.1144920E+01  0.0000000E+00
-0.1144410E+01  0.0000000E+00
-0.1143900E+01  0.0000000E+00
-0.1143390E+01  0.0000000E+00
-0.1142880E+01  0.0000000E+00
-0.1142370E+01  0.0000000E+00
-0.1141860E+01  0.0000000E+00
-0.1141350E+01  0.0000000E+00
-0.1140840E+01  0.0000000E+00
-0.1140330E+01  0.0000000E+00
-0.1139820E+01  0.0000000E+00
-0.1139310E+01  0.0000000E+00
-0.1138800E+01  0.0000000E+00
-0.1138290E+01  0.0000000E+00
-0.1137780E+01  0.0000000E+00
-0.1137270E+01  0.0000000E+00
-0.1136760E+01  0.0000000E+00
-0.1136250E+01  0.0000000E+00
-0.1135740E+01  0.0000000E+00
-0.1135230E+01  0.0000000E+00
-0.1134720E+01  0.0000000E+00
-0.1134210E+01  0.0000000E+00
-0.1133700E+01  0.0000000E+00
-0.1133190E+01  0.0000000E+00
-0.1132680E+01  0.0000000E+00
-0.1132170E+01  0.0000000E+00
-0.1131660E+01  0.0000000E+00
-0.1131150E+01  0.0000000E+00
-0.1130640E+01  0.0000000E+00
-0.1130130E+01  0.0000000E+00
-0.1129620E+01  0.0000000E+00
-0.1129110E+01  0.0000000E+00
-0.1128600E+01  0.0000000E+00
-0.1128090E+01  0.0000000E+00
-0.1127580E+01  0.0000000E+00
-0.1127070E+01  0.0000000E+00
-0.1126560E+01  0.0000000E+00
-0.1126050E+01  0.0000000E+00
-0.1125540E+01  0.0000000E+00
-0.1125030E+01  0.0000000E+00
-0.1124520E+01  0.0000000E+00
-0.1124010E+01  0.0000000E+00
-0.1123500E+01  0.0000000E+00
-0.1122990E+01  0.0000000E+00
-0.1122480E+01  0.0000000E+00
-0.1121970E+01  0.0000000E+00
-0.1121460E+01  0.0000000E+00
-0.1120950E+01  0.0000000E+00
-0.1120440E+01  0.0000000E+00
-0.1119930E+01  0.0000000E+00
-0.1119420E+01  0.0000000E+00
-0.1118910E+01  0.0000000E+00
-0.1118400E+01  0.0000000E+00
-0.1117890E+01  0.0000000E+00
-0.1117380E+01  0.0000000E+00
-0.1116870E+01  0.0000000E+00
-0.1116360E+01  0.0000000E+00
-0.1115850E+01  0.0000000E+00
-0.1115340E+01  0.0000000E+00
-0.1114830E+01  0.0000000E+00
-0.1114320E+01  0.0000000E+00
-0.1113810E+01  0.0000000E+00
-0.1113300E+01  0.0000000E+00
-0.1112790E+01  0.0000000E+00
-0.1112280E+01  0.0000000E+00
-0.1111770E+01  0.0000000E+00
-0.1111260E+01  0.0000000E+00
-0.1110750E+01  0.0000000E+00
-0.1110240E+01  0.0000000E+00
-0.1109730E+01  0.0000000E+00
-0.1109220E+01  0.0000000E+00
-0.1108710E+01  0.0000000E+00
-0.1108200E+01  0.0000000E+00
-0.1107690E+01  0.0000000E+00
-0.1107180E+01  0.0000000E+00
-0.1106670E+01  0.0000000E+00
-0.1106160E+01  0.0000000E+00
-0.1105650E+01  0.0000000E+00
-0.1105140E+01  0.0000000E+00
-0.1104630E+01  0.0000000E+00
-0.1104120E+01  0.0000000E+00
-0.1103610E+01  0.0000000E+00
-0.1103100E+01  0.0000000E+00
-0.1102590E+01  0.0000000E+00
-0.1102080E+01  0.0000000E+00
-0.1101570E+01  0.0000000E+00
-0.1101060E+01  0.0000000E+00
-0.1100550E+01  0.0000000E+00
-0.1100040E+01  0.0000000E+00
-0.1099530E+01  0.0000000E+00
-0.1099020E+01  0.0000000E+00
-0.1098510E+01  0.0000000E+00
-0.1098000E+01  0.0000000E+00
-0.1097490E+01  0.0000000E+00
-0.1096980E+01  0.0000000E+00
-0.1096470E+01  0.0000000E+00
-0.1095960E+01  0.0000000E+00
-0.1095450E+01  0.0000000E+00
-0.1094940E+01  0.0000000E+00
-0.1094430E+01  0.0000000E+00
-0.1093920E+01  0.0000000E+00
-0.1093410E+01  0.0000000E+00
-0.1092900E+01  0.0000000E+00
-0.1092390E+01  0.0000000E+00
-0.1091880E+01  0.0000000E+00
-0.1091370E+01  0.0000000E+00
-0.1090860E+01  0.0000000E+00
-0.1090350E+01  0.0000000E+00
-0.1089840E+01  0.0000000E+00
-0.1089330E+01  0.0000000E+00
-0.1088820E+01  0.0000000E+00
-0.1088310E+01  0.0000000E+00
-0.1087800E+01  0.0000000E+00
-0.1087290E+01  0.0000000E+00
-0.1086780E+01  0.0000000E+00
-0.1086270E+01  0.0000000E+00
-0.1085760E+01  0.0000000E+00
-0.1085250E+01  0.0000000E+00
-0.1084740E+01  0.0000000E+00
-0.1084230E+01  0.0000000E+00
-0.1083720E+01  0.0000000E+00
-0.1083210E+01  0.0000000E+00
-0.1082700E+01  0.0000000E+00
-0.1082190E+01  0.0000000E+00
-0.1081680E+01  0.0000000E+00
-0.1081170E+01  0.0000000E+00
-0.1080660E+01  0.0000000E+00
-0.1080150E+01  0.0000000E+00
-0.1079640E+01  0.0000000E+00
-0.1079130E+01  0.0000000E+00
-0.1078620E+01  0.0000000E+00
-0.1078110E+01  0.0000000E+00
-0.1077600E+01  0.0000000E+00
-0.1077090E+01  0.0000000E+00
-0.1076580E+01  0.0000000E+00
-0.1076070E+01  0.0000000E+00
-0.1075560E+01  0.0000000E+00
-0.1075050E+01  0.0000000E+00
-0.1074540E+01  0.0000000E+00
-0.1074030E+01  0.0000000E+00
-0.1073520E+01  0.0000000E+00
-0.1073010E+01  0.0000000E+00
-0.1072500E+01  0.0000000E+00
-0.1071990E+01  0.0000000E+00
-0.1071480E+01  0.0000000E+00
-0.1070970E+01  0.0000000E+00
-0.1070460E+01  0.0000000E+00
-0.1069950E+01  0.0000000E+00
-0.1069440E+01  0.0000000E+00
-0.1068930E+01  0.0000000E+00
-0.1068420E+01  0.0000000E+00
-0.1067910E+01  0.0000000E+00
-0.1067400E+01  0.0000000E+00
-0.1066890E+01  0.0000000E+00
-0.1066380E+01  0.0000000E+00
-0.1065870E+01  0.0000000E+00
-0.1065360E+01  0.0000000E+00
-0.1064850E+01  0.0000000E+00
-0.1064340E+01  0.0000000E+00
-0.1063830E+01  0.0000000E+00
-0.1063320E+01  0.0000000E+00
-0.1062810E+01  0.0000000E+00
-0.1062300E+01  0.0000000E+00
-0.1061790E+01  0.0000000E+00
-0.1061280E+01  0.0000000E+00
-0.1060770E+01  0.0000000E+00
-0.1060260E+01  0.0000000E+00
-0.1059750E+01  0.0000000E+00
-0.1059240E+01  0.0000000E+00
-0.1058730E+01  0.0000000E+00
-0.1058220E+01  0.0000000E+00
-0.1057710E+01  0.0000000E+00
-0.1057200E+01  0.0000000E+00
-0.1056690E+01  0.0000000E+00
-0.1056180E+01  0.0000000E+00
-0.1055670E+01  0.0000000E+00
-0.1055160E+01  0.0000000E+00
-0.1054650E+01  0.0000000E+00
-0.1054140E+01  0.0000000E+00
-0.1053630E+01  0.0000000E+00
-0.1053120E+01  0.0000000E+00
-0.1052610E+01  0.0000000E+00
-0.1052100E+01  0.0000000E+00
-0.1051590E+01  0.0000000E+00
-0.1051080E+01  0.0000000E+00
-0.1050570E+01  0.0000000E+00
-0.1050060E+01  0.0000000E+00
-0.1049550E+01  0.0000000E+00
-0.1049040E+01  0.0000000E+00
-0.1048530E+01  0.0000000E+00
-0.1048020E+01  0.0000000E+00
-0.1047510E+01  0.0000000E+00
-0.1047000E+01  0.0000000E+00
-0.1046490E+01  0.0000000E+00
-0.1045980E+01  0.0000000E+00
-0.1045470E+01  0.0000000E+00
-0.1044960E+01  0.0000000E+00
-0.1044450E+01  0.0000000E+00
-0.1043940E+01  0.0000000E+00
-0.1043430E+01  0.0000000E+00
-0.1042920E+01  0.0000000E+00
-0.1042410E+01  0.0000000E+00
-0.1041900E+01  0.0000000E+00
-0.1041390E+01  0.0000000E+00
-0.1040880E+01  0.0000000E+00
-0.1040370E+01  0.0000000E+00
-0.1039860E+01  0.0000000E+00
-0.1039350E+01  0.0000000E+00
-0.1038840E+01  0.0000000E+00
-0.1038330E+01  0.0000000E+00
-0.1037820E+01  0.0000000E+00
-0.1037310E+01  0.0000000E+00
-0.1036800E+01  0.0000000E+00
-0.1036290E+01  0.0000000E+00
-0.1035780E+01  0.0000000E+00
-0.1035270E+01  0.0000000E+00
-0.1034760E+01  0.0000000E+00
-0.1034250E+01  0.0000000E+00
-0.1033740E+01  0.0000000E+00
-0.1033230E+01  0.0000000E+00
-0.1032720E+01  0.0000000E+00
-0.1032210E+01  0.0000000E+00
-0.1031700E+01  0.0000000E+00
-0.1031190E+01  0.0000000E+00
-0.1030680E+01  0.0000000E+00
-0.1030170E+01  0.0000000E+00
-0.1029660E+01  0.0000000E+00
-0.1029150E+01  0.0000000E+00
-0.1028640E+01  0.0000000E+00
-0.1028130E+01  0.0000000E+00
-0.1027620E+01  0.0000000E+00
-0.1027110E+01  0.0000000E+00
-0.1026600E+01  0.0000000E+00
-0.1026090E+01  0.0000000E+00
-0.1025580E+01  0.0000000E+00
-0.1025070E+01  0.0000000E+00
-0.1024560E+01  0.0000000E+00
-0.1024050E+01  0.0000000E+00
-0.1023540E+01  0.0000000E+00
-0.1023030E+01  0.0000000E+00
-0.1022520E+01  0.0000000E+00
-0.1022010E+01  0.0000000E+00
-0.1021500E+01  0.0000000E+00
-0.1020990E+01  0.0000000E+00
-0.1020480E+01  0.0000000E+00
-0.1019970E+01  0.0000000E+00
-0.1019460E+01  0.0000000E+00
-0.1018950E+01  0.0000000E+00
-0.1018440E+01  0.0000000E+00
-0.1017930E+01  0.0000000E+00
-0.1017420E+01  0.0000000E+00
-0.1016910E+01  0.0000000E+00
-0.1016400E+01  0.0000000E+00
-0.1015890E+01  0.0000000E+00
-0.1015380E+01  0.0000000E+00
-0.1014870E+01  0.0000000E+00
-0.1014360E+01  0.0000000E+00
-0.1013850E+01  0.0000000E+00
-0.1013340E+01  0.0000000E+00
-0.1012830E+01  0.0000000E+00
-0.1012320E+01  0.0000000E+00
-0.1011810E+01  0.0000000E+00
-0.1011300E+01  0.0000000E+00
-0.1010790E+01  0.0000000E+00
-0.1010280E+01  0.0000000E+00
-0.1009770E+01  0.0000000E+00
-0.1009260E+01  0.0000000E+00
-0.1008750E+01  0.0000000E+00
-0.1008240E+01  0.0000000E+00
-0.1007730E+01  0.0000000E+00
-0.1007220E+01  0.0000000E+00
-0.1006710E+01  0.0000000E+00
-0.1006200E+01  0.0000000E+00
-0.1005690E+01  0.0000000E+00
-0.1005180E+01  0.0000000E+00
-0.1004670E+01  0.0000000E+00
-0.1004160E+01  0.0000000E+00
-0.1003650E+01  0.0000000E+00
-0.1003140E+01  0.0000000E+00
-0.1002630E+01  0.0000000E+00
-0.1002120E+01  0.0000000E+00
-0.1001610E+01  0.0000000E+00
-0.1001100E+01  0.0000000E+00
-0.1000590E+01  0.0000000E+00
-0.1000080E+01  0.0000000E+00
-0.9995700E+00  0.0000000E+00
-0.9990600E+00  0.0000000E+00
-0.9985500E+00  0.0000000E+00
-0.9980400E+00  0.0000000E+00
-0.9975300E+00  0.0000000E+00
-0.9970200E+00  0.0000000E+00
-0.9965100E+00  0.0000000E+00
-0.9960000E+00  0.0000000E+00
-0.9954900E+00  0.0000000E+00
-0.9949800E+00  0.0000000E+00
-0.9944700E+00  0.0000000E+00
-0.9939600E+00  0.0000000E+00
-0.9934500E+00  0.0000000E+00
-0.9929400E+00  0.0000000E+00
-0.9924300E+00  0.0000000E+00
-0.9919200E+00  0.0000000E+00
-0.9914100E+00  0.0000000E+00
-0.9909000E+00  0.0000000E+00
-0.9903900E+00  0.0000000E+00
-0.9898800E+00  0.0000000E+00
-0.9893700E+00  0.0000000E+00
-0.9888600E+00  0.0000000E+00
-0.9883500E+00  0.0000000E+00
-0.9878400E+00  0.0000000E+00
-0.9873300E+00  0.0000000E+00
-0.9868200E+00  0.0000000E+00
-0.9863100E+00  0.0000000E+00
-0.9858000E+00  0.0000000E+00
-0.9852900E+00  0.0000000E+00
-0.9847800E+00  0.0000000E+00
-0.9842700E+00  0.0000000E+00
-0.9837600E+00  0.0000000E+00
-0.9832500E+00  0.0000000E+00
-0.9827400E+00  0.0000000E+00
-0.9822300E+00  0.0000000E+00
-0.9817200E+00  0.0000000E+00
-0.9812100E+00  0.0000000E+00
-0.9807000E+00  0.0000000E+00
-0.9801900E+00  0.0000000E+00
-0.9796800E+00  0.0000000E+00
-0.9791700E+00  0.0000000E+00
-0.9786600E+00  0.0000000E+00
-0.9781500E+00  0.0000000E+00
-0.9776400E+00  0.0000000E+00
-0.9771300E+00  0.0000000E+00
-0.9766200E+00  0.0000000E+00
-0.9761100E+00  0.0000000E+00
-0.9756000E+00  0.0000000E+00
-0.9750900E+00  0.0000000E+00
-0.9745800E+00  0.0000000E+00
-0.9740700E+00  0.0000000E+00
-0.9735600E+00  0.0000000E+00
-0.9730500E+00  0.0000000E+00
-0.9725400E+00  0.0000000E+00
-0.9720300E+00  0.0000000E+00
-0.9715200E+00  0.0000000E+00
-0.9710100E+00  0.0000000E+00
-0.9705000E+00  0.0000000E+00
-0.9699900E+00  0.0000000E+00
-0.9694800E+00  0.0000000E+00
-0.9689700E+00  0.0000000E+00
-0.9684600E+00  0.0000000E+00
-0.9679500E+00  0.0000000E+00
-0.9674400E+00  0.0000000E+00
-0.9669300E+00  0.0000000E+00
-0.9664200E+00  0.0000000E+00
-0.9659100E+00  0.0000000E+00
-0.9654000E+00  0.0000000E+00
-0.9648900E+00  0.0000000E+00
-0.9643800E+00  0.0000000E+00
-0.9638700E+00  0.0000000E+00
-0.9633600E+00  0.0000000E+00
-0.9628500E+00  0.0000000E+00
-0.9623400E+00  0.0000000E+00
-0.9618300E+00  0.0000000E+00
-0.9613200E+00  0.0000000E+00
-0.9608100E+00  0.0000000E+00
-0.9603000E+00  0.0000000E+00
-0.9597900E+00  0.0000000E+00
-0.9592800E+00  0.0000000E+00
-0.9587700E+00  0.0000000E+00
-0.9582600E+00  0.0000000E+00
-0.9577500E+00  0.0000000E+00
-0.9572400E+00  0.0000000E+00
-0.9567300E+00  0.0000000E+00
-0.9562200E+00  0.0000000E+00
-0.9557100E+00  0.0000000E+00
-0.9552000E+00  0.0000000E+00
-0.9546900E+00  0.0000000E+00
-0.9541800E+00  0.0000000E+00
-0.9536700E+00  0.0000000E+00
-0.9531600E+00  0.0000000E+00
-0.9526500E+00  0.0000000E+00
-0.9521400E+00  0.0000000E+00
-0.9516300E+00  0.0000000E+00
-0.9511200E+00  0.0000000E+00
-0.9506100E+00  0.0000000E+00
-0.9501000E+00  0.0000000E+00
-0.9495900E+00  0.0000000E+00
-0.9490800E+00  0.0000000E+00
-0.9485700E+00  0.0000000E+00
-0.9480600E+00  0.0000000E+00
-0.9475500E+00  0.0000000E+00
-0.9470400E+00  0.0000000E+00
-0.9465300E+00  0.0000000E+00
-0.9460200E+00  0.0000000E+00
-0.9455100E+00  0.0000000E+00
-0.9450000E+00  0.0000000E+00
-0.9444900E+00  0.0000000E+00
-0.9439800E+00  0.0000000E+00
-0.9434700E+00  0.0000000E+00
-0.9429600E+00  0.0000000E+00
-0.9424500E+00  0.0000000E+00
-0.9419400E+00  0.0000000E+00
-0.9414300E+00  0.0000000E+00
-0.9409200E+00  0.0000000E+00
-0.9404100E+00  0.0000000E+00
-0.9399000E+00  0.0000000E+00
-0.9393900E+00  0.0000000E+00
-0.9388800E+00  0.0000000E+00
-0.9383700E+00  0.0000000E+00
-0.9378600E+00  0.0000000E+00
-0.9373500E+00  0.0000000E+00
-0.9368400E+00  0.0000000E+00
-0.9363300E+00  0.0000000E+00
-0.9358200E+00  0.0000000E+00
-0.9353100E+00  0.0000000E+00
-0.9348000E+00  0.0000000E+00
-0.9342900E+00  0.0000000E+00
-0.9337800E+00  0.0000000E+00
-0.9332700E+00  0.0000000E+00
-0.9327600E+00  0.0000000E+00
-0.9322500E+00  0.0000000E+00
-0.9317400E+00  0.0000000E+00
-0.9312300E+00  0.0000000E+00
-0.9307200E+00  0.0000000E+00
-0.9302100E+00  0.0000000E+00
-0.9297000E+00  0.0000000E+00
-0.9291900E+00  0.0000000E+00
-0.9286800E+00  0.0000000E+00
-0.9281700E+00  0.0000000E+00
-0.9276600E+00  0.0000000E+00
-0.9271500E+00  0.0000000E+00
-0.9266400E+00  0.0000000E+00
-0.9261300E+00  0.0000000E+00
-0.9256200E+00  0.0000000E+00
-0.9251100E+00  0.0000000E+00
-0.9246000E+00  0.0000000E+00
-0.9240900E+00  0.0000000E+00
-0.9235800E+00  0.0000000E+00
-0.9230700E+00  0.0000000E+00
-0.9225600E+00  0.0000000E+00
-0.9220500E+00  0.0000000E+00
-0.9215400E+00  0.0000000E+00
-0.9210300E+00  0.0000000E+00
-0.9205200E+00  0.0000000E+00
-0.9200100E+00  0.0000000E+00
-0.9195000E+00  0.0000000E+00
-0.9189900E+00  0.0000000E+00
-0.9184800E+00  0.0000000E+00
-0.9179700E+00  0.0000000E+00
-0.9174600E+00  0.0000000E+00
-0.9169500E+00  0.0000000E+00
-0.9164400E+00  0.0000000E+00
-0.9159300E+00  0.0000000E+00
-0.9154200E+00  0.0000000E+00
-0.9149100E+00  0.0000000E+00
-0.9144000E+00  0.0000000E+00
-0.9138900E+00  0.0000000E+00
-0.9133800E+00  0.0000000E+00
-0.9128700E+00  0.0000000E+00
-0.9123600E+00  0.0000000E+00
-0.9118500E+00  0.0000000E+00
-0.9113400E+00  0.0000000E+00
-0.9108300E+00  0.0000000E+00
-0.9103200E+00  0.0000000E+00
-0.9098100E+00  0.0000000E+00
-0.9093000E+00  0.0000000E+00
-0.9087900E+00  0.0000000E+00
-0.9082800E+00  0.0000000E+00
-0.9077700E+00  0.0000000E+00
-0.9072600E+00  0.0000000E+00
-0.9067500E+00  0.0000000E+00
-0.9062400E+00  0.0000000E+00
-0.9057300E+00  0.0000000E+00
-0.9052200E+00  0.0000000E+00
-0.9047100E+00  0.0000000E+00
-0.9042000E+00  0.0000000E+00
-0.9036900E+00  0.0000000E+00
-0.9031800E+00  0.0000000E+00
-0.9026700E+00  0.0000000E+00
-0.9021600E+00  0.0000000E+00
-0.9016500E+00  0.0000000E+00
-0.9011400E+00  0.0000000E+00
-0.9006300E+00  0.0000000E+00
-0.9001200E+00  0.0000000E+00
-0.8996100E+00  0.0000000E+00
-0.8991000E+00  0.0000000E+00
-0.8985900E+00  0.0000000E+00
-0.8980800E+00  0.0000000E+00
-0.8975700E+00  0.0000000E+00
-0.8970600E+00  0.0000000E+00
-0.8965500E+00  0.0000000E+00
-0.8960400E+00  0.0000000E+00
-0.8955300E+00  0.0000000E+00
-0.8950200E+00  0.0000000E+00
-0.8945100E+00  0.0000000E+00
-0.8940000E+00  0.0000000E+00
-0.8934900E+00  0.0000000E+00
-0.8929800E+00  0.0000000E+00
-0.8924700E+00  0.0000000E+00
-0.8919600E+00  0.0000000E+00
-0.8914500E+00  0.0000000E+00
-0.8909400E+00  0.0000000E+00
-0.8904300E+00  0.0000000E+00
-0.8899200E+00  0.0000000E+00
-0.8894100E+00  0.0000000E+00
-0.8889000E+00  0.0000000E+00
-0.8883900E+00  0.0000000E+00
-0.8878800E+00  0.0000000E+00
-0.8873700E+00  0.0000000E+00
-0.8868600E+00  0.0000000E+00
-0.8863500E+00  0.0000000E+00
-0.8858400E+00  0.0000000E+00
-0.8853300E+00  0.0000000E+00
-0.8848200E+00  0.0000000E+00
-0.8843100E+00  0.0000000E+00
-0.8838000E+00  0.0000000E+00
-0.8832900E+00  0.0000000E+00
-0.8827800E+00  0.0000000E+00
-0.8822700E+00  0.0000000E+00
-0.8817600E+00  0.0000000E+00
-0.8812500E+00  0.0000000E+00
-0.8807400E+00  0.0000000E+00
-0.8802300E+00  0.0000000E+00
-0.8797200E+00  0.0000000E+00
-0.8792100E+00  0.0000000E+00
-0.8787000E+00  0.0000000E+00
-0.8781900E+00  0.0000000E+00
-0.8776800E+00  0.0000000E+00
-0.8771700E+00  0.0000000E+00
-0.8766600E+00  0.0000000E+00
-0.8761500E+00  0.0000000E+00
-0.8756400E+00  0.0000000E+00
-0.8751300E+00  0.0000000E+00
-0.8746200E+00  0.0000000E+00
-0.8741100E+00  0.0000000E+00
-0.8736000E+00  0.0000000E+00
-0.8730900E+00  0.0000000E+00
-0.8725800E+00  0.0000000E+00
-0.8720700E+00  0.0000000E+00
-0.8715600E+00  0.0000000E+00
-0.8710500E+00  0.0000000E+00
-0.8705400E+00  0.0000000E+00
-0.8700300E+00  0.0000000E+00
-0.8695200E+00  0.0000000E+00
-0.8690100E+00  0.0000000E+00
-0.8685000E+00  0.0000000E+00
-0.8679900E+00  0.0000000E+00
-0.8674800E+00  0.0000000E+00
-0.8669700E+00  0.0000000E+00
-0.8664600E+00  0.0000000E+00
-0.8659500E+00  0.0000000E+00
-0.8654400E+00  0.0000000E+00
-0.8649300E+00  0.0000000E+00
-0.8644200E+00  0.0000000E+00
-0.8639100E+00  0.0000000E+00
-0.8634000E+00  0.0000000E+00
-0.8628900E+00  0.0000000E+00
-0.8623800E+00  0.0000000E+00
-0.8618700E+00  0.0000000E+00
-0.8613600E+00  0.0000000E+00
-0.8608500E+00  0.0000000E+00
-0.8603400E+00  0.0000000E+00
-0.8598300E+00  0.0000000E+00
-0.8593200E+00  0.0000000E+00
-0.8588100E+00  0.0000000E+00
-0.8583000E+00  0.0000000E+00
-0.8577900E+00  0.0000000E+00
-0.8572800E+00  0.0000000E+00
-0.8567700E+00  0.0000000E+00
-0.8562600E+00  0.0000000E+00
-0.8557500E+00  0.0000000E+00
-0.8552400E+00  0.0000000E+00
-0.8547300E+00  0.0000000E+00
-0.8542200E+00  0.0000000E+00
-0.8537100E+00  0.0000000E+00
-0.8532000E+00  0.0000000E+00
-0.8526900E+00  0.0000000E+00
-0.8521800E+00  0.0000000E+00
-0.8516700E+00  0.0000000E+00
-0.8511600E+00  0.0000000E+00
-0.8506500E+00  0.0000000E+00
-0.8501400E+00  0.0000000E+00
-0.8496300E+00  0.0000000E+00
-0.8491200E+00  0.0000000E+00
-0.8486100E+00  0.0000000E+00
-0.8481000E+00  0.0000000E+00
-0.8475900E+00  0.0000000E+00
-0.8470800E+00 -0.0000000E+00
-0.8465700E+00 -0.0000000E+00
-0.8460600E+00 -0.0000000E+00
-0.8455500E+00 -0.0000000E+00
-0.8450400E+00 -0.0000000E+00
-0.8445300E+00 -0.0000000E+00
-0.8440200E+00 -0.0000000E+00
-0.8435100E+00 -0.0000000E+00
-0.8430000E+00 -0.0000000E+00
-0.8424900E+00 -0.0000000E+00
-0.8419800E+00 -0.0000000E+00
-0.8414700E+00 -0.0000000E+00
-0.8409600E+00 -0.0000000E+00
-0.8404500E+00 -0.0000000E+00
-0.8399400E+00 -0.0000000E+00
-0.8394300E+00 -0.0000000E+00
-0.8389200E+00 -0.0000000E+00
-0.8384100E+00 -0.0000000E+00
-0.8379000E+00 -0.0000000E+00
-0.8373900E+00 -0.0000000E+00
-0.8368800E+00 -0.0000000E+00
-0.8363700E+00 -0.0000000E+00
-0.8358600E+00 -0.0000000E+00
-0.8353500E+00 -0.0000000E+00
-0.8348400E+00 -0.0000000E+00
-0.8343300E+00 -0.0000000E+00
-0.8338200E+00 -0.0000000E+00
-0.8333100E+00 -0.0000000E+00
-0.8328000E+00 -0.0000000E+00
-0.8322900E+00 -0.0000000E+00
-0.8317800E+00 -0.0000000E+00
-0.8312700E+00 -0.0000000E+00
-0.8307600E+00 -0.0000000E+00
-0.8302500E+00 -0.0000000E+00
-0.8297400E+00 -0.0000000E+00
-0.8292300E+00 -0.0000000E+00
-0.8287200E+00 -0.0000000E+00
-0.8282100E+00 -0.0000000E+00
-0.8277000E+00  0.0000000E+00
-0.8271900E+00  0.0000000E+00
-0.8266800E+00  0.0000000E+00
-0.8261700E+00  0.0000000E+00
-0.8256600E+00  0.0000000E+00
-0.8251500E+00  0.0000000E+00
-0.8246400E+00 -0.1532819E-37
-0.8241300E+00 -0.3699156E-37
-0.8236200E+00 -0.5883510E-37
-0.8231100E+00 -0.7982613E-37
-0.8226000E+00 -0.9807358E-37
-0.8220900E+00 -0.1142700E-36
-0.8215800E+00 -0.1229898E-36
-0.8210700E+00 -0.1250734E-36
-0.8205600E+00 -0.1244765E-36
-0.8200500E+00 -0.1204331E-36
-0.8195400E+00 -0.1121803E-36
-0.8190300E+00 -0.9668304E-37
-0.8185200E+00 -0.7533333E-37
-0.8180100E+00 -0.4993149E-37
-0.8175000E+00 -0.2504931E-37
-0.8169900E+00 -0.0000000E+00
-0.8164800E+00  0.1963109E-37
-0.8159700E+00  0.3518267E-37
-0.8154600E+00  0.4529428E-37
-0.8149500E+00  0.4827010E-37
-0.8144400E+00  0.4297920E-37
-0.8139300E+00  0.2446063E-37
-0.8134200E+00  0.0000000E+00
-0.8129100E+00 -0.4922345E-37
-0.8124000E+00 -0.1161788E-36
-0.8118900E+00 -0.2028256E-36
-0.8113800E+00 -0.3123341E-36
-0.8108700E+00 -0.4456778E-36
-0.8103600E+00 -0.6023762E-36
-0.8098500E+00 -0.7803863E-36
-0.8093400E+00 -0.9781203E-36
-0.8088300E+00 -0.1190037E-35
-0.8083200E+00 -0.1412329E-35
-0.8078100E+00 -0.1641216E-35
-0.8073000E+00 -0.1872893E-35
-0.8067900E+00 -0.2107726E-35
-0.8062800E+00 -0.2341623E-35
-0.8057700E+00 -0.2574947E-35
-0.8052600E+00 -0.2808835E-35
-0.8047500E+00 -0.3041823E-35
-0.8042400E+00 -0.3274576E-35
-0.8037300E+00 -0.3511286E-35
-0.8032200E+00 -0.3750211E-35
-0.8027100E+00 -0.3993135E-35
-0.8022000E+00 -0.4240162E-35
-0.8016900E+00 -0.4495087E-35
-0.8011800E+00 -0.4761209E-35
-0.8006700E+00 -0.5038643E-35
-0.8001600E+00 -0.5323908E-35
-0.7996500E+00 -0.5614670E-35
-0.7991400E+00 -0.5909991E-35
-0.7986300E+00 -0.6207517E-35
-0.7981200E+00 -0.6504388E-35
-0.7976100E+00 -0.6796035E-35
-0.7971000E+00 -0.7078120E-35
-0.7965900E+00 -0.7344168E-35
-0.7960800E+00 -0.7595956E-35
-0.7955700E+00 -0.7834833E-35
-0.7950600E+00 -0.8060447E-35
-0.7945500E+00 -0.8272095E-35
-0.7940400E+00 -0.8474158E-35
-0.7935300E+00 -0.8667457E-35
-0.7930200E+00 -0.8852524E-35
-0.7925100E+00 -0.9039608E-35
-0.7920000E+00 -0.9229832E-35
-0.7914900E+00 -0.9425210E-35
-0.7909800E+00 -0.9629967E-35
-0.7904700E+00 -0.9846972E-35
-0.7899600E+00 -0.1007879E-34
-0.7894500E+00 -0.1033117E-34
-0.7889400E+00 -0.1060908E-34
-0.7884300E+00 -0.1091192E-34
-0.7879200E+00 -0.1124078E-34
-0.7874100E+00 -0.1159506E-34
-0.7869000E+00 -0.1197343E-34
-0.7863900E+00 -0.1237079E-34
-0.7858800E+00 -0.1278584E-34
-0.7853700E+00 -0.1321724E-34
-0.7848600E+00 -0.1366357E-34
-0.7843500E+00 -0.1411823E-34
-0.7838400E+00 -0.1457826E-34
-0.7833300E+00 -0.1504026E-34
-0.7828200E+00 -0.1550425E-34
-0.7823100E+00 -0.1597003E-34
-0.7818000E+00 -0.1643642E-34
-0.7812900E+00 -0.1690558E-34
-0.7807800E+00 -0.1737959E-34
-0.7802700E+00 -0.1786146E-34
-0.7797600E+00 -0.1835482E-34
-0.7792500E+00 -0.1886527E-34
-0.7787400E+00 -0.1939432E-34
-0.7782300E+00 -0.1994350E-34
-0.7777200E+00 -0.2051983E-34
-0.7772100E+00 -0.2112574E-34
-0.7767000E+00 -0.2176336E-34
-0.7761900E+00 -0.2243648E-34
-0.7756800E+00 -0.2314432E-34
-0.7751700E+00 -0.2388629E-34
-0.7746600E+00 -0.2466091E-34
-0.7741500E+00 -0.2546584E-34
-0.7736400E+00 -0.2629809E-34
-0.7731300E+00 -0.2715435E-34
-0.7726200E+00 -0.2803017E-34
-0.7721100E+00 -0.2892475E-34
-0.7716000E+00 -0.2983269E-34
-0.7710900E+00 -0.3075397E-34
-0.7705800E+00 -0.3168575E-34
-0.7700700E+00 -0.3262897E-34
-0.7695600E+00 -0.3358466E-34
-0.7690500E+00 -0.3455490E-34
-0.7685400E+00 -0.3554278E-34
-0.7680300E+00 -0.3655213E-34
-0.7675200E+00 -0.3758759E-34
-0.7670100E+00 -0.3865532E-34
-0.7665000E+00 -0.3975804E-34
-0.7659900E+00 -0.4089834E-34
-0.7654800E+00 -0.4208434E-34
-0.7649700E+00 -0.4331791E-34
-0.7644600E+00 -0.4459869E-34
-0.7639500E+00 -0.4593061E-34
-0.7634400E+00 -0.4731548E-34
-0.7629300E+00 -0.4875127E-34
-0.7624200E+00 -0.5023644E-34
-0.7619100E+00 -0.5176570E-34
-0.7614000E+00 -0.5333839E-34
-0.7608900E+00 -0.5495392E-34
-0.7603800E+00 -0.5661181E-34
-0.7598700E+00 -0.5830782E-34
-0.7593600E+00 -0.6004067E-34
-0.7588500E+00 -0.6180861E-34
-0.7583400E+00 -0.6361336E-34
-0.7578300E+00 -0.6545762E-34
-0.7573200E+00 -0.6734506E-34
-0.7568100E+00 -0.6927879E-34
-0.7563000E+00 -0.7126263E-34
-0.7557900E+00 -0.7330346E-34
-0.7552800E+00 -0.7540460E-34
-0.7547700E+00 -0.7756974E-34
-0.7542600E+00 -0.7980619E-34
-0.7537500E+00 -0.8211962E-34
-0.7532400E+00 -0.8451533E-34
-0.7527300E+00 -0.8699935E-34
-0.7522200E+00 -0.8957497E-34
-0.7517100E+00 -0.9224451E-34
-0.7512000E+00 -0.9500932E-34
-0.7506900E+00 -0.9786982E-34
-0.7501800E+00 -0.1008257E-33
-0.7496700E+00 -0.1038757E-33
-0.7491600E+00 -0.1070197E-33
-0.7486500E+00 -0.1102584E-33
-0.7481400E+00 -0.1135867E-33
-0.7476300E+00 -0.1170028E-33
-0.7471200E+00 -0.1205057E-33
-0.7466100E+00 -0.1240954E-33
-0.7461000E+00 -0.1277726E-33
-0.7455900E+00 -0.1315394E-33
-0.7450800E+00 -0.1353992E-33
-0.7445700E+00 -0.1393562E-33
-0.7440600E+00 -0.1434159E-33
-0.7435500E+00 -0.1475839E-33
-0.7430400E+00 -0.1518699E-33
-0.7425300E+00 -0.1562802E-33
-0.7420200E+00 -0.1608182E-33
-0.7415100E+00 -0.1654948E-33
-0.7410000E+00 -0.1703170E-33
-0.7404900E+00 -0.1752915E-33
-0.7399800E+00 -0.1804241E-33
-0.7394700E+00 -0.1857199E-33
-0.7389600E+00 -0.1911829E-33
-0.7384500E+00 -0.1968163E-33
-0.7379400E+00 -0.2026226E-33
-0.7374300E+00 -0.2086035E-33
-0.7369200E+00 -0.2147606E-33
-0.7364100E+00 -0.2210949E-33
-0.7359000E+00 -0.2276072E-33
-0.7353900E+00 -0.2343022E-33
-0.7348800E+00 -0.2411795E-33
-0.7343700E+00 -0.2482419E-33
-0.7338600E+00 -0.2554933E-33
-0.7333500E+00 -0.2629391E-33
-0.7328400E+00 -0.2705854E-33
-0.7323300E+00 -0.2784401E-33
-0.7318200E+00 -0.2865118E-33
-0.7313100E+00 -0.2948106E-33
-0.7308000E+00 -0.3033471E-33
-0.7302900E+00 -0.3121327E-33
-0.7297800E+00 -0.3211792E-33
-0.7292700E+00 -0.3305011E-33
-0.7287600E+00 -0.3401085E-33
-0.7282500E+00 -0.3500107E-33
-0.7277400E+00 -0.3602161E-33
-0.7272300E+00 -0.3707377E-33
-0.7267200E+00 -0.3815848E-33
-0.7262100E+00 -0.3927660E-33
-0.7257000E+00 -0.4042888E-33
-0.7251900E+00 -0.4161605E-33
-0.7246800E+00 -0.4283857E-33
-0.7241700E+00 -0.4409722E-33
-0.7236600E+00 -0.4539284E-33
-0.7231500E+00 -0.4672582E-33
-0.7226400E+00 -0.4809697E-33
-0.7221300E+00 -0.4950723E-33
-0.7216200E+00 -0.5095713E-33
-0.7211100E+00 -0.5244749E-33
-0.7206000E+00 -0.5397944E-33
-0.7200900E+00 -0.5555414E-33
-0.7195800E+00 -0.5717282E-33
-0.7190700E+00 -0.5883685E-33
-0.7185600E+00 -0.6054770E-33
-0.7180500E+00 -0.6230693E-33
-0.7175400E+00 -0.6411626E-33
-0.7170300E+00 -0.6597746E-33
-0.7165200E+00 -0.6789208E-33
-0.7160100E+00 -0.6986192E-33
-0.7155000E+00 -0.7188872E-33
-0.7149900E+00 -0.7397441E-33
-0.7144800E+00 -0.7612082E-33
-0.7139700E+00 -0.7832977E-33
-0.7134600E+00 -0.8060309E-33
-0.7129500E+00 -0.8294258E-33
-0.7124400E+00 -0.8535006E-33
-0.7119300E+00 -0.8782737E-33
-0.7114200E+00 -0.9037614E-33
-0.7109100E+00 -0.9299847E-33
-0.7104000E+00 -0.9569656E-33
-0.7098900E+00 -0.9847249E-33
-0.7093800E+00 -0.1013281E-32
-0.7088700E+00 -0.1042655E-32
-0.7083600E+00 -0.1072871E-32
-0.7078500E+00 -0.1103951E-32
-0.7073400E+00 -0.1135923E-32
-0.7068300E+00 -0.1168811E-32
-0.7063200E+00 -0.1202642E-32
-0.7058100E+00 -0.1237444E-32
-0.7053000E+00 -0.1273247E-32
-0.7047900E+00 -0.1310081E-32
-0.7042800E+00 -0.1347977E-32
-0.7037700E+00 -0.1386969E-32
-0.7032600E+00 -0.1427092E-32
-0.7027500E+00 -0.1468377E-32
-0.7022400E+00 -0.1510859E-32
-0.7017300E+00 -0.1554574E-32
-0.7012200E+00 -0.1599558E-32
-0.7007100E+00 -0.1645845E-32
-0.7002000E+00 -0.1693474E-32
-0.6996900E+00 -0.1742481E-32
-0.6991800E+00 -0.1792903E-32
-0.6986700E+00 -0.1844780E-32
-0.6981600E+00 -0.1898149E-32
-0.6976500E+00 -0.1953052E-32
-0.6971400E+00 -0.2009528E-32
-0.6966300E+00 -0.2067619E-32
-0.6961200E+00 -0.2127369E-32
-0.6956100E+00 -0.2188822E-32
-0.6951000E+00 -0.2252025E-32
-0.6945900E+00 -0.2317026E-32
-0.6940800E+00 -0.2383874E-32
-0.6935700E+00 -0.2452621E-32
-0.6930600E+00 -0.2523322E-32
-0.6925500E+00 -0.2596034E-32
-0.6920400E+00 -0.2670814E-32
-0.6915300E+00 -0.2747724E-32
-0.6910200E+00 -0.2826827E-32
-0.6905100E+00 -0.2908188E-32