-0.1200000E+01 -0.1715348E-32
-0.1199490E+01 -0.1764918E-32
-0.1198980E+01 -0.1815911E-32
-0.1198470E+01 -0.1868366E-32
-0.1197960E+01 -0.1922325E-32
-0.1197450E+01 -0.1977833E-32
-0.1196940E+01 -0.2034933E-32
-0.1196430E+01 -0.2093671E-32
-0.1195920E+01 -0.2154095E-32
-0.1195410E+01 -0.2216252E-32
-0.1194900E+01 -0.2280193E-32
-0.1194390E+01 -0.2345968E-32
-0.1193880E+01 -0.2413631E-32
-0.1193370E+01 -0.2483233E-32
-0.1192860E+01 -0.2554832E-32
-0.1192350E+01 -0.2628482E-32
-0.1191840E+01 -0.2704243E-32
-0.1191330E+01 -0.2782174E-32
-0.1190820E+01 -0.2862336E-32
-0.1190310E+01 -0.2944792E-32
-0.1189800E+01 -0.3029607E-32
-0.1189290E+01 -0.3116847E-32
-0.1188780E+01 -0.3206582E-32
-0.1188270E+01 -0.3298881E-32
-0.1187760E+01 -0.3393817E-32
-0.1187250E+01 -0.3491465E-32
-0.1186740E+01 -0.3591902E-32
-0.1186230E+01 -0.3695207E-32
-0.1185720E+01 -0.3801461E-32
-0.1185210E+01 -0.3910749E-32
-0.1184700E+01 -0.4023157E-32
-0.1184190E+01 -0.4138775E-32
-0.1183680E+01 -0.4257692E-32
-0.1183170E+01 -0.4380004E-32
-0.1182660E+01 -0.4505806E-32
-0.1182150E+01 -0.4635200E-32
-0.1181640E+01 -0.4768286E-32
-0.1181130E+01 -0.4905168E-32
-0.1180620E+01 -0.5045956E-32
-0.1180110E+01 -0.5190759E-32
-0.1179600E+01 -0.5339691E-32
-0.1179090E+01 -0.5492868E-32
-0.1178580E+01 -0.5650411E-32
-0.1178070E+01 -0.5812443E-32
-0.1177560E+01 -0.5979091E-32
-0.1177050E+01 -0.6150484E-32
-0.1176540E+01 -0.6326756E-32
-0.1176030E+01 -0.6508045E-32
-0.1175520E+01 -0.6694493E-32
-0.1175010E+01 -0.6886246E-32
-0.1174500E+01 -0.7083453E-32
-0.1173990E+01 -0.7286268E-32
-0.1173480E+01 -0.7494851E-32
-0.1172970E+01 -0.7709364E-32
-0.1172460E+01 -0.7929975E-32
-0.1171950E+01 -0.8156857E-32
-0.1171440E+01 -0.8390189E-32
-0.1170930E+01 -0.8630150E-32
-0.1170420E+01 -0.8876931E-32
-0.1169910E+01 -0.9130722E-32
-0.1169400E+01 -0.9391723E-32
-0.1168890E+01 -0.9660137E-32
-0.1168380E+01 -0.9936173E-32
-0.1167870E+01 -0.1022005E-31
-0.1167360E+01 -0.1051198E-31
-0.1166850E+01 -0.1081219E-31
-0.1166340E+01 -0.1112093E-31
-0.1165830E+01 -0.1143842E-31
-0.1165320E+01 -0.1176491E-31
-0.1164810E+01 -0.1210066E-31
-0.1164300E+01 -0.1244593E-31
-0.1163790E+01 -0.1280098E-31
-0.1163280E+01 -0.1316608E-31
-0.1162770E+01 -0.1354153E-31
-0.1162260E+01 -0.1392761E-31
-0.1161750E+01 -0.1432461E-31
-0.1161240E+01 -0.1473286E-31
-0.1160730E+01 -0.1515266E-31
-0.1160220E+01 -0.1558434E-31
-0.1159710E+01 -0.1602824E-31
-0.1159200E+01 -0.1648469E-31
-0.1158690E+01 -0.1695405E-31
-0.1158180E+01 -0.1743669E-31
-0.1157670E+01 -0.1793297E-31
-0.1157160E+01 -0.1844327E-31
-0.1156650E+01 -0.1896800E-31
-0.1156140E+01 -0.1950756E-31
-0.1155630E+01 -0.2006236E-31
-0.1155120E+01 -0.2063283E-31
-0.1154610E+01 -0.2121941E-31
-0.1154100E+01 -0.2182255E-31
-0.1153590E+01 -0.2244273E-31
-0.1153080E+01 -0.2308041E-31
-0.1152570E+01 -0.2373608E-31
-0.1152060E+01 -0.2441025E-31
-0.1151550E+01 -0.2510345E-31
-0.1151040E+01 -0.2581619E-31
-0.1150530E+01 -0.2654903E-31
-0.1150020E+01 -0.2730254E-31
-0.1149510E+01 -0.2807728E-31
-0.1149000E+01 -0.2887386E-31
-0.1148490E+01 -0.2969288E-31
-0.1147980E+01 -0.3053498E-31
-0.1147470E+01 -0.3140079E-31
-0.1146960E+01 -0.3229099E-31
-0.1146450E+01 -0.3320624E-31
-0.1145940E+01 -0.3414726E-31
-0.1145430E+01 -0.3511477E-31
-0.1144920E+01 -0.3610951E-31
-0.1144410E+01 -0.3713223E-31
-0.1143900E+01 -0.3818372E-31
-0.1143390E+01 -0.3926478E-31
-0.1142880E+01 -0.4037625E-31
-0.1142370E+01 -0.4151896E-31
-0.1141860E+01 -0.4269380E-31
-0.1141350E+01 -0.4390166E-31
-0.1140840E+01 -0.4514346E-31
-0.1140330E+01 -0.4642015E-31
-0.1139820E+01 -0.4773269E-31
-0.1139310E+01 -0.4908211E-31
-0.1138800E+01 -0.5046941E-31
-0.1138290E+01 -0.5189565E-31
-0.1137780E+01 -0.5336193E-31
-0.1137270E+01 -0.5486936E-31
-0.1136760E+01 -0.5641907E-31
-0.1136250E+01 -0.5801224E-31
-0.1135740E+01 -0.5965010E-31
-0.1135230E+01 -0.6133388E-31
-0.1134720E+01 -0.6306485E-31
-0.1134210E+01 -0.6484434E-31
-0.1133700E+01 -0.6667368E-31
-0.1133190E+01 -0.6855427E-31
-0.1132680E+01 -0.7048753E-31
-0.1132170E+01 -0.7247493E-31
-0.1131660E+01 -0.7451798E-31
-0.1131150E+01 -0.7661822E-31
-0.1130640E+01 -0.7877724E-31
-0.1130130E+01 -0.8099667E-31
-0.1129620E+01 -0.8327820E-31
-0.1129110E+01 -0.8562355E-31
-0.1128600E+01 -0.8803449E-31
-0.1128090E+01 -0.9051285E-31
-0.1127580E+01 -0.9306050E-31
-0.1127070E+01 -0.9567935E-31
-0.1126560E+01 -0.9837139E-31
-0.1126050E+01 -0.1011386E-30
-0.1125540E+01 -0.1039832E-30
-0.1125030E+01 -0.1069072E-30
-0.1124520E+01 -0.1099128E-30
-0.1124010E+01 -0.1130024E-30
-0.1123500E+01 -0.1161782E-30
-0.1122990E+01 -0.1194426E-30
-0.1122480E+01 -0.1227981E-30
-0.1121970E+01 -0.1262472E-30
-0.1121460E+01 -0.1297925E-30
-0.1120950E+01 -0.1334367E-30
-0.1120440E+01 -0.1371825E-30
-0.1119930E+01 -0.1410327E-30
-0.1119420E+01 -0.1449902E-30
-0.1118910E+01 -0.1490580E-30
-0.1118400E+01 -0.1532391E-30
-0.1117890E+01 -0.1575367E-30
-0.1117380E+01 -0.1619539E-30
-0.1116870E+01 -0.1664942E-30
-0.1116360E+01 -0.1711609E-30
-0.1115850E+01 -0.1759575E-30
-0.1115340E+01 -0.1808876E-30
-0.1114830E+01 -0.1859548E-30
-0.1114320E+01 -0.1911630E-30
-0.1113810E+01 -0.1965161E-30
-0.1113300E+01 -0.2020180E-30
-0.1112790E+01 -0.2076729E-30
-0.1112280E+01 -0.2134850E-30
-0.1111770E+01 -0.2194587E-30
-0.1111260E+01 -0.2255983E-30
-0.1110750E+01 -0.2319084E-30
-0.1110240E+01 -0.2383939E-30
-0.1109730E+01 -0.2450594E-30
-0.1109220E+01 -0.2519100E-30
-0.1108710E+01 -0.2589507E-30
-0.1108200E+01 -0.2661869E-30
-0.1107690E+01 -0.2736238E-30
-0.1107180E+01 -0.2812670E-30
-0.1106670E+01 -0.2891223E-30
-0.1106160E+01 -0.2971953E-30
-0.1105650E+01 -0.3054923E-30
-0.1105140E+01 -0.3140192E-30
-0.1104630E+01 -0.3227824E-30
-0.1104120E+01 -0.3317885E-30
-0.1103610E+01 -0.3410440E-30
-0.1103100E+01 -0.3505559E-30
-0.1102590E+01 -0.3603312E-30
-0.1102080E+01 -0.3703772E-30
-0.1101570E+01 -0.3807013E-30
-0.1101060E+01 -0.3913110E-30
-0.1100550E+01 -0.4022144E-30
-0.1100040E+01 -0.4134194E-30
-0.1099530E+01 -0.4249343E-30
-0.1099020E+01 -0.4367677E-30
-0.1098510E+01 -0.4489282E-30
-0.1098000E+01 -0.4614249E-30
-0.1097490E+01 -0.4742670E-30
-0.1096980E+01 -0.4874639E-30
-0.1096470E+01 -0.5010255E-30
-0.1095960E+01 -0.5149616E-30
-0.1095450E+01 -0.5292826E-30
-0.1094940E+01 -0.5439990E-30
-0.1094430E+01 -0.5591218E-30
-0.1093920E+01 -0.5746619E-30
-0.1093410E+01 -0.5906309E-30
-0.1092900E+01 -0.6070405E-30
-0.1092390E+01 -0.6239027E-30
-0.1091880E+01 -0.6412301E-30
-0.1091370E+01 -0.6590353E-30
-0.1090860E+01 -0.6773313E-30
-0.1090350E+01 -0.6961317E-30
-0.1089840E+01 -0.7154502E-30
-0.1089330E+01 -0.7353011E-30
-0.1088820E+01 -0.7556988E-30
-0.1088310E+01 -0.7766584E-30
-0.1087800E+01 -0.7981952E-30
-0.1087290E+01 -0.8203249E-30
-0.1086780E+01 -0.8430639E-30
-0.1086270E+01 -0.8664286E-30
-0.1085760E+01 -0.8904362E-30
-0.1085250E+01 -0.9151043E-30
-0.1084740E+01 -0.9404510E-30
-0.1084230E+01 -0.9664947E-30
-0.1083720E+01 -0.9932544E-30
-0.1083210E+01 -0.1020750E-29
-0.1082700E+01 -0.1049001E-29
-0.1082190E+01 -0.1078028E-29
-0.1081680E+01 -0.1107853E-29
-0.1081170E+01 -0.1138497E-29
-0.1080660E+01 -0.1169983E-29
-0.1080150E+01 -0.1202333E-29
-0.1079640E+01 -0.1235571E-29
-0.1079130E+01 -0.1269722E-29
-0.1078620E+01 -0.1304810E-29
-0.1078110E+01 -0.1340860E-29
-0.1077600E+01 -0.1377899E-29
-0.1077090E+01 -0.1415954E-29
-0.1076580E+01 -0.1455052E-29
-0.1076070E+01 -0.1495222E-29
-0.1075560E+01 -0.1536493E-29
-0.1075050E+01 -0.1578895E-29
-0.1074540E+01 -0.1622458E-29
-0.1074030E+01 -0.1667215E-29
-0.1073520E+01 -0.1713198E-29
-0.1073010E+01 -0.1760439E-29
-0.1072500E+01 -0.1808974E-29
-0.1071990E+01 -0.1858837E-29
-0.1071480E+01 -0.1910065E-29
-0.1070970E+01 -0.1962694E-29
-0.1070460E+01 -0.2016763E-29
-0.1069950E+01 -0.2072310E-29
-0.1069440E+01 -0.2129376E-29
-0.1068930E+01 -0.2188003E-29
-0.1068420E+01 -0.2248231E-29
-0.1067910E+01 -0.2310106E-29
-0.1067400E+01 -0.2373671E-29
-0.1066890E+01 -0.2438972E-29
-0.1066380E+01 -0.2506057E-29
-0.1065870E+01 -0.2574973E-29
-0.1065360E+01 -0.2645771E-29
-0.1064850E+01 -0.2718501E-29
-0.1064340E+01 -0.2793217E-29
-0.1063830E+01 -0.2869970E-29
-0.1063320E+01 -0.2948818E-29
-0.1062810E+01 -0.3029816E-29
-0.1062300E+01 -0.3113023E-29
-0.1061790E+01 -0.3198498E-29
-0.1061280E+01 -0.3286304E-29
-0.1060770E+01 -0.3376502E-29
-0.1060260E+01 -0.3469158E-29
-0.1059750E+01 -0.3564338E-29
-0.1059240E+01 -0.3662111E-29
-0.1058730E+01 -0.3762546E-29
-0.1058220E+01 -0.3865715E-29
-0.1057710E+01 -0.3971693E-29
-0.1057200E+01 -0.4080555E-29
-0.1056690E+01 -0.4192380E-29
-0.1056180E+01 -0.4307246E-29
-0.1055670E+01 -0.4425237E-29
-0.1055160E+01 -0.4546436E-29
-0.1054650E+01 -0.4670930E-29
-0.1054140E+01 -0.4798808E-29
-0.1053630E+01 -0.4930161E-29
-0.1053120E+01 -0.5065083E-29
-0.1052610E+01 -0.5203671E-29
-0.1052100E+01 -0.5346023E-29
-0.1051590E+01 -0.5492241E-29
-0.1051080E+01 -0.5642428E-29
-0.1050570E+01 -0.5796692E-29
-0.1050060E+01 -0.5955142E-29
-0.1049550E+01 -0.6117893E-29
-0.1049040E+01 -0.6285058E-29
-0.1048530E+01 -0.6456757E-29
-0.1048020E+01 -0.6633112E-29
-0.1047510E+01 -0.6814249E-29
-0.1047000E+01 -0.7000295E-29
-0.1046490E+01 -0.7191383E-29
-0.1045980E+01 -0.7387649E-29
-0.1045470E+01 -0.7589232E-29
-0.1044960E+01 -0.7796275E-29
-0.1044450E+01 -0.8008924E-29
-0.1043940E+01 -0.8227330E-29
-0.1043430E+01 -0.8451649E-29
-0.1042920E+01 -0.8682037E-29
-0.1042410E+01 -0.8918660E-29
-0.1041900E+01 -0.9161683E-29
-0.1041390E+01 -0.9411280E-29
-0.1040880E+01 -0.9667626E-29
-0.1040370E+01 -0.9930902E-29
-0.1039860E+01 -0.1020130E-28
-0.1039350E+01 -0.1047900E-28
-0.1038840E+01 -0.1076420E-28
-0.1038330E+01 -0.1105711E-28
-0.1037820E+01 -0.1135793E-28
-0.1037310E+01 -0.1166687E-28
-0.1036800E+01 -0.1198416E-28
-0.1036290E+01 -0.1231001E-28
-0.1035780E+01 -0.1264465E-28
-0.1035270E+01 -0.1298832E-28
-0.1034760E+01 -0.1334127E-28
-0.1034250E+01 -0.1370373E-28
-0.1033740E+01 -0.1407597E-28
-0.1033230E+01 -0.1445825E-28
-0.1032720E+01 -0.1485084E-28
-0.1032210E+01 -0.1525400E-28
-0.1031700E+01 -0.1566803E-28
-0.1031190E+01 -0.1609321E-28
-0.1030680E+01 -0.1652984E-28
-0.1030170E+01 -0.1697823E-28
-0.1029660E+01 -0.1743870E-28
-0.1029150E+01 -0.1791155E-28
-0.1028640E+01 -0.1839714E-28
-0.1028130E+01 -0.1889579E-28
-0.1027620E+01 -0.1940786E-28
-0.1027110E+01 -0.1993369E-28
-0.1026600E+01 -0.2047367E-28
-0.1026090E+01 -0.2102817E-28
-0.1025580E+01 -0.2159757E-28
-0.1025070E+01 -0.2218227E-28
-0.1024560E+01 -0.2278269E-28
-0.1024050E+01 -0.2339923E-28
-0.1023540E+01 -0.2403234E-28
-0.1023030E+01 -0.2468245E-28
-0.1022520E+01 -0.2535001E-28
-0.1022010E+01 -0.2603549E-28
-0.1021500E+01 -0.2673936E-28
-0.1020990E+01 -0.2746213E-28
-0.1020480E+01 -0.2820428E-28
-0.1019970E+01 -0.2896634E-28
-0.1019460E+01 -0.2974883E-28
-0.1018950E+01 -0.3055231E-28
-0.1018440E+01 -0.3137732E-28
-0.1017930E+01 -0.3222444E-28
-0.1017420E+01 -0.3309426E-28
-0.1016910E+01 -0.3398738E-28
-0.1016400E+01 -0.3490442E-28
-0.1015890E+01 -0.3584601E-28
-0.1015380E+01 -0.3681282E-28
-0.1014870E+01 -0.3780550E-28
-0.1014360E+01 -0.3882475E-28
-0.1013850E+01 -0.3987126E-28
-0.1013340E+01 -0.4094578E-28
-0.1012830E+01 -0.4204903E-28
-0.1012320E+01 -0.4318178E-28
-0.1011810E+01 -0.4434482E-28
-0.1011300E+01 -0.4553894E-28
-0.1010790E+01 -0.4676498E-28
-0.1010280E+01 -0.4802377E-28
-0.1009770E+01 -0.4931619E-28
-0.1009260E+01 -0.5064313E-28
-0.1008750E+01 -0.5200550E-28
-0.1008240E+01 -0.5340424E-28
-0.1007730E+01 -0.5484033E-28
-0.1007220E+01 -0.5631473E-28
-0.1006710E+01 -0.5782848E-28
-0.1006200E+01 -0.5938260E-28
-0.1005690E+01 -0.6097817E-28
-0.1005180E+01 -0.6261630E-28
-0.1004670E+01 -0.6429809E-28
-0.1004160E+01 -0.6602471E-28
-0.1003650E+01 -0.6779735E-28
-0.1003140E+01 -0.6961722E-28
-0.1002630E+01 -0.7148556E-28
-0.1002120E+01 -0.7340367E-28
-0.1001610E+01 -0.7537286E-28
-0.1001100E+01 -0.7739447E-28
-0.1000590E+01 -0.7946989E-28
-0.1000080E+01 -0.8160054E-28
-0.9995700E+00 -0.8378788E-28
-0.9990600E+00 -0.8603340E-28
-0.9985500E+00 -0.8833865E-28
-0.9980400E+00 -0.9070519E-28
-0.9975300E+00 -0.9313465E-28
-0.9970200E+00 -0.9562868E-28
-0.9965100E+00 -0.9818898E-28
-0.9960000E+00 -0.1008173E-27
-0.9954900E+00 -0.1035154E-27
-0.9949800E+00 -0.1062852E-27
-0.9944700E+00 -0.1091286E-27
-0.9939600E+00 -0.1120474E-27
-0.9934500E+00 -0.1150437E-27
-0.9929400E+00 -0.1181195E-27
-0.9924300E+00 -0.1212769E-27
-0.9919200E+00 -0.1245180E-27
-0.9914100E+00 -0.1278451E-27
-0.9909000E+00 -0.1312604E-27
-0.9903900E+00 -0.1347662E-27
-0.9898800E+00 -0.1383650E-27
-0.9893700E+00 -0.1420591E-27
-0.9888600E+00 -0.1458511E-27
-0.9883500E+00 -0.1497435E-27
-0.9878400E+00 -0.1537390E-27
-0.9873300E+00 -0.1578403E-27
-0.9868200E+00 -0.1620502E-27
-0.9863100E+00 -0.1663715E-27
-0.9858000E+00 -0.1708071E-27
-0.9852900E+00 -0.1753601E-27
-0.9847800E+00 -0.1800334E-27
-0.9842700E+00 -0.1848304E-27
-0.9837600E+00 -0.1897542E-27
-0.9832500E+00 -0.1948082E-27
-0.9827400E+00 -0.1999957E-27
-0.9822300E+00 -0.2053203E-27
-0.9817200E+00 -0.2107855E-27
-0.9812100E+00 -0.2163951E-27
-0.9807000E+00 -0.2221528E-27
-0.9801900E+00 -0.2280626E-27
-0.9796800E+00 -0.2341283E-27
-0.9791700E+00 -0.2403541E-27
-0.9786600E+00 -0.2467442E-27
-0.9781500E+00 -0.2533029E-27
-0.9776400E+00 -0.2600345E-27
-0.9771300E+00 -0.2669437E-27
-0.9766200E+00 -0.2740350E-27
-0.9761100E+00 -0.2813132E-27
-0.9756000E+00 -0.2887833E-27
-0.9750900E+00 -0.2964501E-27
-0.9745800E+00 -0.3043189E-27
-0.9740700E+00 -0.3123950E-27
-0.9735600E+00 -0.3206837E-27
-0.9730500E+00 -0.3291906E-27
-0.9725400E+00 -0.3379214E-27
-0.9720300E+00 -0.3468819E-27
-0.9715200E+00 -0.3560782E-27
-0.9710100E+00 -0.3655164E-27
-0.9705000E+00 -0.3752028E-27
-0.9699900E+00 -0.3851439E-27
-0.9694800E+00 -0.3953464E-27
-0.9689700E+00 -0.4058170E-27
-0.9684600E+00 -0.4165627E-27
-0.9679500E+00 -0.4275907E-27
-0.9674400E+00 -0.4389085E-27
-0.9669300E+00 -0.4505234E-27
-0.9664200E+00 -0.4624433E-27
-0.9659100E+00 -0.4746761E-27
-0.9654000E+00 -0.4872299E-27
-0.9648900E+00 -0.5001132E-27
-0.9643800E+00 -0.5133344E-27
-0.9638700E+00 -0.5269024E-27
-0.9633600E+00 -0.5408262E-27
-0.9628500E+00 -0.5551150E-27
-0.9623400E+00 -0.5697783E-27
-0.9618300E+00 -0.5848260E-27
-0.9613200E+00 -0.6002679E-27
-0.9608100E+00 -0.6161143E-27
-0.9603000E+00 -0.6323758E-27
-0.9597900E+00 -0.6490630E-27
-0.9592800E+00 -0.6661872E-27
-0.9587700E+00 -0.6837596E-27
-0.9582600E+00 -0.7017918E-27
-0.9577500E+00 -0.7202959E-27
-0.9572400E+00 -0.7392840E-27
-0.9567300E+00 -0.7587686E-27
-0.9562200E+00 -0.7787628E-27
-0.9557100E+00 -0.7992797E-27
-0.9552000E+00 -0.8203328E-27
-0.9546900E+00 -0.8419361E-27
-0.9541800E+00 -0.8641038E-27
-0.9536700E+00 -0.8868506E-27
-0.9531600E+00 -0.9101915E-27
-0.9526500E+00 -0.9341419E-27
-0.9521400E+00 -0.9587174E-27
-0.9516300E+00 -0.9839344E-27
-0.9511200E+00 -0.1009809E-26
-0.9506100E+00 -0.1036360E-26
-0.9501000E+00 -0.1063602E-26
-0.9495900E+00 -0.1091555E-26
-0.9490800E+00 -0.1120237E-26
-0.9485700E+00 -0.1149666E-26
-0.9480600E+00 -0.1179863E-26
-0.9475500E+00 -0.1210846E-26
-0.9470400E+00 -0.1242636E-26
-0.9465300E+00 -0.1275255E-26
-0.9460200E+00 -0.1308722E-26
-0.9455100E+00 -0.1343061E-26
-0.9450000E+00 -0.1378294E-26
-0.9444900E+00 -0.1414444E-26
-0.9439800E+00 -0.1451534E-26
-0.9434700E+00 -0.1489589E-26
-0.9429600E+00 -0.1528634E-26
-0.9424500E+00 -0.1568694E-26
-0.9419400E+00 -0.1609796E-26
-0.9414300E+00 -0.1651965E-26
-0.9409200E+00 -0.1695231E-26
-0.9404100E+00 -0.1739621E-26
-0.9399000E+00 -0.1785164E-26
-0.9393900E+00 -0.1831890E-26
-0.9388800E+00 -0.1879829E-26
-0.9383700E+00 -0.1929012E-26
-0.9378600E+00 -0.1979472E-26
-0.9373500E+00 -0.2031242E-26
-0.9368400E+00 -0.2084354E-26
-0.9363300E+00 -0.2138844E-26
-0.9358200E+00 -0.2194748E-26
-0.9353100E+00 -0.2252100E-26
-0.9348000E+00 -0.2310939E-26
-0.9342900E+00 -0.2371303E-26
-0.9337800E+00 -0.2433231E-26
-0.9332700E+00 -0.2496764E-26
-0.9327600E+00 -0.2561942E-26
-0.9322500E+00 -0.2628807E-26
-0.9317400E+00 -0.2697404E-26
-0.9312300E+00 -0.2767776E-26
-0.9307200E+00 -0.2839970E-26
-0.9302100E+00 -0.2914031E-26
-0.9297000E+00 -0.2990008E-26
-0.9291900E+00 -0.3067950E-26
-0.9286800E+00 -0.3147907E-26
-0.9281700E+00 -0.3229931E-26
-0.9276600E+00 -0.3314076E-26
-0.9271500E+00 -0.3400394E-26
-0.9266400E+00 -0.3488943E-26
-0.9261300E+00 -0.3579778E-26
-0.9256200E+00 -0.3672960E-26
-0.9251100E+00 -0.3768548E-26
-0.9246000E+00 -0.3866603E-26
-0.9240900E+00 -0.3967189E-26
-0.9235800E+00 -0.4070371E-26
-0.9230700E+00 -0.4176213E-26
-0.9225600E+00 -0.4284786E-26
-0.9220500E+00 -0.4396159E-26
-0.9215400E+00 -0.4510403E-26
-0.9210300E+00 -0.4627592E-26
-0.9205200E+00 -0.4747801E-26
-0.9200100E+00 -0.4871107E-26
-0.9195000E+00 -0.4997589E-26
-0.9189900E+00 -0.5127329E-26
-0.9184800E+00 -0.5260410E-26
-0.9179700E+00 -0.5396917E-26
-0.9174600E+00 -0.5536937E-26
-0.9169500E+00 -0.5680561E-26
-0.9164400E+00 -0.5827879E-26
-0.9159300E+00 -0.5978987E-26
-0.9154200E+00 -0.6133982E-26
-0.9149100E+00 -0.6292961E-26
-0.9144000E+00 -0.6456027E-26
-0.9138900E+00 -0.6623284E-26
-0.9133800E+00 -0.6794838E-26
-0.9128700E+00 -0.6970799E-26
-0.9123600E+00 -0.7151281E-26
-0.9118500E+00 -0.7336396E-26
-0.9113400E+00 -0.7526265E-26
-0.9108300E+00 -0.7721006E-26
-0.9103200E+00 -0.7920745E-26
-0.9098100E+00 -0.8125609E-26
-0.9093000E+00 -0.8335728E-26
-0.9087900E+00 -0.8551235E-26
-0.9082800E+00 -0.8772269E-26
-0.9077700E+00 -0.8998969E-26
-0.9072600E+00 -0.9231479E-26
-0.9067500E+00 -0.9469948E-26
-0.9062400E+00 -0.9714526E-26
-0.9057300E+00 -0.9965369E-26
-0.9052200E+00 -0.1022264E-25
-0.9047100E+00 -0.1048649E-25
-0.9042000E+00 -0.1075710E-25
-0.9036900E+00 -0.1103463E-25
-0.9031800E+00 -0.1131927E-25
-0.9026700E+00 -0.1161119E-25
-0.9021600E+00 -0.1191057E-25
-0.9016500E+00 -0.1221761E-25
-0.9011400E+00 -0.1253250E-25
-0.9006300E+00 -0.1285544E-25
-0.9001200E+00 -0.1318663E-25
-0.8996100E+00 -0.1352629E-25
-0.8991000E+00 -0.1387462E-25
-0.8985900E+00 -0.1423184E-25
-0.8980800E+00 -0.1459819E-25
-0.8975700E+00 -0.1497389E-25
-0.8970600E+00 -0.1535917E-25
-0.8965500E+00 -0.1575429E-25
-0.8960400E+00 -0.1615949E-25
-0.8955300E+00 -0.1657503E-25
-0.8950200E+00 -0.1700116E-25
-0.8945100E+00 -0.1743815E-25
-0.8940000E+00 -0.1788629E-25
-0.8934900E+00 -0.1834584E-25
-0.8929800E+00 -0.1881711E-25
-0.8924700E+00 -0.1930038E-25
-0.8919600E+00 -0.1979596E-25
-0.8914500E+00 -0.2030415E-25
-0.8909400E+00 -0.2082529E-25
-0.8904300E+00 -0.2135969E-25
-0.8899200E+00 -0.2190769E-25
-0.8894100E+00 -0.2246963E-25
-0.8889000E+00 -0.2304587E-25
-0.8883900E+00 -0.2363676E-25
-0.8878800E+00 -0.2424267E-25
-0.8873700E+00 -0.2486399E-25
-0.8868600E+00 -0.2550109E-25
-0.8863500E+00 -0.2615439E-25
-0.8858400E+00 -0.2682428E-25
-0.8853300E+00 -0.2751118E-25
-0.8848200E+00 -0.2821553E-25
-0.8843100E+00 -0.2893775E-25
-0.8838000E+00 -0.2967831E-25
-0.8832900E+00 -0.3043766E-25
-0.8827800E+00 -0.3121628E-25
-0.8822700E+00 -0.3201465E-25
-0.8817600E+00 -0.3283327E-25
-0.8812500E+00 -0.3367264E-25
-0.8807400E+00 -0.3453329E-25
-0.8802300E+00 -0.3541575E-25
-0.8797200E+00 -0.3632057E-25
-0.8792100E+00 -0.3724832E-25
-0.8787000E+00 -0.3819956E-25
-0.8781900E+00 -0.3917490E-25
-0.8776800E+00 -0.4017492E-25
-0.8771700E+00 -0.4120026E-25
-0.8766600E+00 -0.4225155E-25
-0.8761500E+00 -0.4332944E-25
-0.8756400E+00 -0.4443459E-25
-0.8751300E+00 -0.4556769E-25
-0.8746200E+00 -0.4672945E-25
-0.8741100E+00 -0.4792057E-25
-0.8736000E+00 -0.4914180E-25
-0.8730900E+00 -0.5039390E-25
-0.8725800E+00 -0.5167762E-25
-0.8720700E+00 -0.5299377E-25
-0.8715600E+00 -0.5434316E-25
-0.8710500E+00 -0.5572662E-25
-0.8705400E+00 -0.5714500E-25
-0.8700300E+00 -0.5859919E-25
-0.8695200E+00 -0.6009007E-25
-0.8690100E+00 -0.6161855E-25
-0.8685000E+00 -0.6318560E-25
-0.8679900E+00 -0.6479215E-25
-0.8674800E+00 -0.6643920E-25
-0.8669700E+00 -0.6812777E-25
-0.8664600E+00 -0.6985890E-25
-0.8659500E+00 -0.7163364E-25
-0.8654400E+00 -0.7345308E-25
-0.8649300E+00 -0.7531833E-25
-0.8644200E+00 -0.7723055E-25
-0.8639100E+00 -0.7919091E-25
-0.8634000E+00 -0.8120060E-25
-0.8628900E+00 -0.8326085E-25
-0.8623800E+00 -0.8537294E-25
-0.8618700E+00 -0.8753814E-25
-0.8613600E+00 -0.8975778E-25
-0.8608500E+00 -0.9203323E-25
-0.8603400E+00 -0.9436586E-25
-0.8598300E+00 -0.9675711E-25
-0.8593200E+00 -0.9920843E-25
-0.8588100E+00 -0.1017213E-24
-0.8583000E+00 -0.1042973E-24
-0.8577900E+00 -0.1069380E-24
-0.8572800E+00 -0.1096450E-24
-0.8567700E+00 -0.1124199E-24
-0.8562600E+00 -0.1152644E-24
-0.8557500E+00 -0.1181803E-24
-0.8552400E+00 -0.1211693E-24
-0.8547300E+00 -0.1242333E-24
-0.8542200E+00 -0.1273741E-24
-0.8537100E+00 -0.1305936E-24
-0.8532000E+00 -0.1338937E-24
-0.8526900E+00 -0.1372766E-24
-0.8521800E+00 -0.1407442E-24
-0.8516700E+00 -0.1442986E-24
-0.8511600E+00 -0.1479420E-24
-0.8506500E+00 -0.1516766E-24
-0.8501400E+00 -0.1555047E-24
-0.8496300E+00 -0.1594286E-24
-0.8491200E+00 -0.1634506E-24
-0.8486100E+00 -0.1675732E-24
-0.8481000E+00 -0.1717989E-24
-0.8475900E+00 -0.1761303E-24
-0.8470800E+00 -0.1805699E-24
-0.8465700E+00 -0.1851204E-24
-0.8460600E+00 -0.1897846E-24
-0.8455500E+00 -0.1945654E-24
-0.8450400E+00 -0.1994655E-24
-0.8445300E+00 -0.2044879E-24
-0.8440200E+00 -0.2096358E-24
-0.8435100E+00 -0.2149121E-24
-0.8430000E+00 -0.2203200E-24
-0.8424900E+00 -0.2258629E-24
-0.8419800E+00 -0.2315439E-24
-0.8414700E+00 -0.2373667E-24
-0.8409600E+00 -0.2433346E-24
-0.8404500E+00 -0.2494513E-24
-0.8399400E+00 -0.2557203E-24
-0.8394300E+00 -0.2621456E-24
-0.8389200E+00 -0.2687309E-24
-0.8384100E+00 -0.2754802E-24
-0.8379000E+00 -0.2823976E-24
-0.8373900E+00 -0.2894872E-24
-0.8368800E+00 -0.2967532E-24
-0.8363700E+00 -0.3042000E-24
-0.8358600E+00 -0.3118321E-24
-0.8353500E+00 -0.3196540E-24
-0.8348400E+00 -0.3276704E-24
-0.8343300E+00 -0.3358861E-24
-0.8338200E+00 -0.3443060E-24
-0.8333100E+00 -0.3529351E-24
-0.8328000E+00 -0.3617785E-24
-0.8322900E+00 -0.3708417E-24
-0.8317800E+00 -0.3801298E-24
-0.8312700E+00 -0.3896486E-24
-0.8307600E+00 -0.3994036E-24
-0.8302500E+00 -0.4094007E-24
-0.8297400E+00 -0.4196458E-24
-0.8292300E+00 -0.4301451E-24
-0.8287200E+00 -0.4409047E-24
-0.8282100E+00 -0.4519310E-24
-0.8277000E+00 -0.4632307E-24
-0.8271900E+00 -0.4748104E-24
-0.8266800E+00 -0.4866770E-24
-0.8261700E+00 -0.4988375E-24
-0.8256600E+00 -0.5112993E-24
-0.8251500E+00 -0.5240696E-24
-0.8246400E+00 -0.5371560E-24
-0.8241300E+00 -0.5505664E-24
-0.8236200E+00 -0.5643086E-24
-0.8231100E+00 -0.5783908E-24
-0.8226000E+00 -0.5928213E-24
-0.8220900E+00 -0.6076088E-24
-0.8215800E+00 -0.6227618E-24
-0.8210700E+00 -0.6382894E-24
-0.8205600E+00 -0.6542008E-24
-0.8200500E+00 -0.6705053E-24
-0.8195400E+00 -0.6872127E-24
-0.8190300E+00 -0.7043326E-24
-0.8185200E+00 -0.7218754E-24
-0.8180100E+00 -0.7398512E-24
-0.8175000E+00 -0.7582707E-24
-0.8169900E+00 -0.7771448E-24
-0.8164800E+00 -0.7964845E-24
-0.8159700E+00 -0.8163013E-24
-0.8154600E+00 -0.8366067E-24
-0.8149500E+00 -0.8574128E-24
-0.8144400E+00 -0.8787318E-24
-0.8139300E+00 -0.9005761E-24
-0.8134200E+00 -0.9229587E-24
-0.8129100E+00 -0.9458926E-24
-0.8124000E+00 -0.9693913E-24
-0.8118900E+00 -0.9934686E-24
-0.8113800E+00 -0.1018139E-23
-0.8108700E+00 -0.1043416E-23
-0.8103600E+00 -0.1069315E-23
-0.8098500E+00 -0.1095851E-23
-0.8093400E+00 -0.1123040E-23
-0.8088300E+00 -0.1150897E-23
-0.8083200E+00 -0.1179439E-23
-0.8078100E+00 -0.1208683E-23
-0.8073000E+00 -0.1238645E-23
-0.8067900E+00 -0.1269343E-23
-0.8062800E+00 -0.1300795E-23
-0.8057700E+00 -0.1333020E-23
-0.8052600E+00 -0.1366036E-23
-0.8047500E+00 -0.1399862E-23
-0.8042400E+00 -0.1434518E-23
-0.8037300E+00 -0.1470024E-23
-0.8032200E+00 -0.1506402E-23
-0.8027100E+00 -0.1543671E-23
-0.8022000E+00 -0.1581855E-23
-0.8016900E+00 -0.1620974E-23
-0.8011800E+00 -0.1661053E-23
-0.8006700E+00 -0.1702113E-23
-0.8001600E+00 -0.1744180E-23
-0.7996500E+00 -0.1787276E-23
-0.7991400E+00 -0.1831429E-23
-0.7986300E+00 -0.1876662E-23
-0.7981200E+00 -0.1923002E-23
-0.7976100E+00 -0.1970476E-23
-0.7971000E+00 -0.2019112E-23
-0.7965900E+00 -0.2068937E-23
-0.7960800E+00 -0.2119981E-23
-0.7955700E+00 -0.2172273E-23
-0.7950600E+00 -0.2225844E-23
-0.7945500E+00 -0.2280723E-23
-0.7940400E+00 -0.2336943E-23
-0.7935300E+00 -0.2394537E-23
-0.7930200E+00 -0.2453537E-23
-0.7925100E+00 -0.2513978E-23
-0.7920000E+00 -0.2575894E-23
-0.7914900E+00 -0.2639321E-23
-0.7909800E+00 -0.2704296E-23
-0.7904700E+00 -0.2770856E-23
-0.7899600E+00 -0.2839039E-23
-0.7894500E+00 -0.2908885E-23
-0.7889400E+00 -0.2980433E-23
-0.7884300E+00 -0.3053726E-23
-0.7879200E+00 -0.3128804E-23
-0.7874100E+00 -0.3205711E-23
-0.7869000E+00 -0.3284491E-23
-0.7863900E+00 -0.3365190E-23
-0.7858800E+00 -0.3447854E-23
-0.7853700E+00 -0.3532530E-23
-0.7848600E+00 -0.3619266E-23
-0.7843500E+00 -0.3708113E-23
-0.7838400E+00 -0.3799122E-23
-0.7833300E+00 -0.3892343E-23
-0.7828200E+00 -0.3987832E-23
-0.7823100E+00 -0.4085642E-23
-0.7818000E+00 -0.4185829E-23
-0.7812900E+00 -0.4288451E-23
-0.7807800E+00 -0.4393566E-23
-0.7802700E+00 -0.4501234E-23
-0.7797600E+00 -0.4611517E-23
-0.7792500E+00 -0.4724477E-23
-0.7787400E+00 -0.4840179E-23
-0.7782300E+00 -0.4958689E-23
-0.7777200E+00 -0.5080073E-23
-0.7772100E+00 -0.5204402E-23
-0.7767000E+00 -0.5331746E-23
-0.7761900E+00 -0.5462177E-23
-0.7756800E+00 -0.5595769E-23
-0.7751700E+00 -0.5732599E-23
-0.7746600E+00 -0.5872743E-23
-0.7741500E+00 -0.6016282E-23
-0.7736400E+00 -0.6163296E-23
-0.7731300E+00 -0.6313870E-23
-0.7726200E+00 -0.6468088E-23
-0.7721100E+00 -0.6626038E-23
-0.7716000E+00 -0.6787809E-23
-0.7710900E+00 -0.6953493E-23
-0.7705800E+00 -0.7123184E-23
-0.7700700E+00 -0.7296977E-23
-0.7695600E+00 -0.7474971E-23
-0.7690500E+00 -0.7657268E-23
-0.7685400E+00 -0.7843968E-23
-0.7680300E+00 -0.8035179E-23
-0.7675200E+00 -0.8231008E-23
-0.7670100E+00 -0.8431565E-23
-0.7665000E+00 -0.8636965E-23
-0.7659900E+00 -0.8847323E-23
-0.7654800E+00 -0.9062758E-23
-0.7649700E+00 -0.9283390E-23
-0.7644600E+00 -0.9509345E-23
-0.7639500E+00 -0.9740750E-23
-0.7634400E+00 -0.9977734E-23
-0.7629300E+00 -0.1022043E-22
-0.7624200E+00 -0.1046898E-22
-0.7619100E+00 -0.1072351E-22
-0.7614000E+00 -0.1098418E-22
-0.7608900E+00 -0.1125112E-22
-0.7603800E+00 -0.1152450E-22
-0.7598700E+00 -0.1180445E-22
-0.7593600E+00 -0.1209114E-22
-0.7588500E+00 -0.1238473E-22
-0.7583400E+00 -0.1268538E-22
-0.7578300E+00 -0.1299326E-22
-0.7573200E+00 -0.1330854E-22
-0.7568100E+00 -0.1363140E-22
-0.7563000E+00 -0.1396202E-22
-0.7557900E+00 -0.1430059E-22
-0.7552800E+00 -0.1464728E-22
-0.7547700E+00 -0.1500230E-22
-0.7542600E+00 -0.1536585E-22
-0.7537500E+00 -0.1573812E-22
-0.7532400E+00 -0.1611932E-22
-0.7527300E+00 -0.1650967E-22
-0.7522200E+00 -0.1690939E-22
-0.7517100E+00 -0.1731869E-22
-0.7512000E+00 -0.1773781E-22
-0.7506900E+00 -0.1816697E-22
-0.7501800E+00 -0.1860642E-22
-0.7496700E+00 -0.1905641E-22
-0.7491600E+00 -0.1951717E-22
-0.7486500E+00 -0.1998897E-22
-0.7481400E+00 -0.2047207E-22
-0.7476300E+00 -0.2096674E-22
-0.7471200E+00 -0.2147325E-22
-0.7466100E+00 -0.2199188E-22
-0.7461000E+00 -0.2252293E-22
-0.7455900E+00 -0.2306667E-22
-0.7450800E+00 -0.2362343E-22
-0.7445700E+00 -0.2419350E-22
-0.7440600E+00 -0.2477720E-22
-0.7435500E+00 -0.2537485E-22
-0.7430400E+00 -0.2598678E-22
-0.7425300E+00 -0.2661332E-22
-0.7420200E+00 -0.2725484E-22
-0.7415100E+00 -0.2791166E-22
-0.7410000E+00 -0.2858417E-22
-0.7404900E+00 -0.2927273E-22
-0.7399800E+00 -0.2997771E-22
-0.7394700E+00 -0.3069951E-22
-0.7389600E+00 -0.3143852E-22
-0.7384500E+00 -0.3219516E-22
-0.7379400E+00 -0.3296982E-22
-0.7374300E+00 -0.3376294E-22
-0.7369200E+00 -0.3457496E-22
-0.7364100E+00 -0.3540632E-22
-0.7359000E+00 -0.3625748E-22
-0.7353900E+00 -0.3712890E-22
-0.7348800E+00 -0.3802106E-22
-0.7343700E+00 -0.3893445E-22
-0.7338600E+00 -0.3986958E-22
-0.7333500E+00 -0.4082696E-22
-0.7328400E+00 -0.4180710E-22
-0.7323300E+00 -0.4281055E-22
-0.7318200E+00 -0.4383786E-22
-0.7313100E+00 -0.4488959E-22
-0.7308000E+00 -0.4596631E-22
-0.7302900E+00 -0.4706862E-22
-0.7297800E+00 -0.4819712E-22
-0.7292700E+00 -0.4935242E-22
-0.7287600E+00 -0.5053516E-22
-0.7282500E+00 -0.5174597E-22
-0.7277400E+00 -0.5298553E-22
-0.7272300E+00 -0.5425450E-22
-0.7267200E+00 -0.5555357E-22
-0.7262100E+00 -0.5688346E-22
-0.7257000E+00 -0.5824488E-22
-0.7251900E+00 -0.5963858E-22
-0.7246800E+00 -0.6106531E-22
-0.7241700E+00 -0.6252584E-22
-0.7236600E+00 -0.6402097E-22
-0.7231500E+00 -0.6555151E-22
-0.7226400E+00 -0.6711828E-22
-0.7221300E+00 -0.6872214E-22
-0.7216200E+00 -0.7036395E-22
-0.7211100E+00 -0.7204460E-22
-0.7206000E+00 -0.7376501E-22
-0.7200900E+00 -0.7552609E-22
-0.7195800E+00 -0.7732881E-22
-0.7190700E+00 -0.7917413E-22
-0.7185600E+00 -0.8106306E-22
-0.7180500E+00 -0.8299661E-22
-0.7175400E+00 -0.8497583E-22
-0.7170300E+00 -0.8700179E-22
-0.7165200E+00 -0.8907559E-22
-0.7160100E+00 -0.9119833E-22
-0.7155000E+00 -0.9337119E-22
-0.7149900E+00 -0.9559531E-22
-0.7144800E+00 -0.9787190E-22
-0.7139700E+00 -0.1002022E-21
-0.7134600E+00 -0.1025874E-21
-0.7129500E+00 -0.1050289E-21
-0.7124400E+00 -0.1075280E-21
-0.7119300E+00 -0.1100859E-21
-0.7114200E+00 -0.1127041E-21
-0.7109100E+00 -0.1153840E-21
-0.7104000E+00 -0.1181270E-21
-0.7098900E+00 -0.1209346E-21
-0.7093800E+00 -0.1238083E-21
-0.7088700E+00 -0.1267496E-21
-0.7083600E+00 -0.1297602E-21
-0.7078500E+00 -0.1328415E-21
-0.7073400E+00 -0.1359953E-21
-0.7068300E+00 -0.1392232E-21
-0.7063200E+00 -0.1425271E-21
-0.7058100E+00 -0.1459085E-21
-0.7053000E+00 -0.1493694E-21
-0.7047900E+00 -0.1529115E-21
-0.7042800E+00 -0.1565369E-21
-0.7037700E+00 -0.1602473E-21
-0.7032600E+00 -0.1640447E-21
-0.7027500E+00 -0.1679313E-21
-0.7022400E+00 -0.1719090E-21
-0.7017300E+00 -0.1759800E-21
-0.7012200E+00 -0.1801465E-21
-0.7007100E+00 -0.1844105E-21
-0.7002000E+00 -0.1887746E-21
-0.6996900E+00 -0.1932408E-21
-0.6991800E+00 -0.1978117E-21
-0.6986700E+00 -0.2024897E-21
-0.6981600E+00 -0.2072772E-21
-0.6976500E+00 -0.2121767E-21
-0.6971400E+00 -0.2171910E-21
-0.6966300E+00 -0.2223226E-21
-0.6961200E+00 -0.2275743E-21
-0.6956100E+00 -0.2329489E-21
-0.6951000E+00 -0.2384492E-21
-0.6945900E+00 -0.2440781E-21
-0.6940800E+00 -0.2498386E-21
-0.6935700E+00 -0.2557338E-21
-0.6930600E+00 -0.2617667E-21
-0.6925500E+00 -0.2679406E-21
-0.6920400E+00 -0.2742587E-21
-0.6915300E+00 -0.2807244E-21
-0.6910200E+00 -0.2873410E-21
-0.6905100E+00 -0.2941121E-21