-0.1200000E+01 -0.3230488E-04
-0.1199490E+01 -0.3266844E-04
-0.1198980E+01 -0.3303592E-04
-0.1198470E+01 -0.3340735E-04
-0.1197960E+01 -0.3378278E-04
-0.1197450E+01 -0.3416223E-04
-0.1196940E+01 -0.3454575E-04
-0.1196430E+01 -0.3493337E-04
-0.1195920E+01 -0.3532514E-04
-0.1195410E+01 -0.3572109E-04
-0.1194900E+01 -0.3612127E-04
-0.1194390E+01 -0.3652570E-04
-0.1193880E+01 -0.3693445E-04
-0.1193370E+01 -0.3734756E-04
-0.1192860E+01 -0.3776506E-04
-0.1192350E+01 -0.3818700E-04
-0.1191840E+01 -0.3861345E-04
-0.1191330E+01 -0.3904443E-04
-0.1190820E+01 -0.3947999E-04
-0.1190310E+01 -0.3992020E-04
-0.1189800E+01 -0.4036508E-04
-0.1189290E+01 -0.4081470E-04
-0.1188780E+01 -0.4126909E-04
-0.1188270E+01 -0.4172831E-04
-0.1187760E+01 -0.4219241E-04
-0.1187250E+01 -0.4266143E-04
-0.1186740E+01 -0.4313542E-04
-0.1186230E+01 -0.4361443E-04
-0.1185720E+01 -0.4409852E-04
-0.1185210E+01 -0.4458772E-04
-0.1184700E+01 -0.4508210E-04
-0.1184190E+01 -0.4558170E-04
-0.1183680E+01 -0.4608658E-04
-0.1183170E+01 -0.4659680E-04
-0.1182660E+01 -0.4711240E-04
-0.1182150E+01 -0.4763344E-04
-0.1181640E+01 -0.4815998E-04
-0.1181130E+01 -0.4869207E-04
-0.1180620E+01 -0.4922977E-04
-0.1180110E+01 -0.4977313E-04
-0.1179600E+01 -0.5032222E-04
-0.1179090E+01 -0.5087708E-04
-0.1178580E+01 -0.5143778E-04
-0.1178070E+01 -0.5200437E-04
-0.1177560E+01 -0.5257691E-04
-0.1177050E+01 -0.5315545E-04
-0.1176540E+01 -0.5374006E-04
-0.1176030E+01 -0.5433079E-04
-0.1175520E+01 -0.5492771E-04
-0.1175010E+01 -0.5553087E-04
-0.1174500E+01 -0.5614033E-04
-0.1173990E+01 -0.5675617E-04
-0.1173480E+01 -0.5737843E-04
-0.1172970E+01 -0.5800719E-04
-0.1172460E+01 -0.5864252E-04
-0.1171950E+01 -0.5928446E-04
-0.1171440E+01 -0.5993310E-04
-0.1170930E+01 -0.6058850E-04
-0.1170420E+01 -0.6125073E-04
-0.1169910E+01 -0.6191985E-04
-0.1169400E+01 -0.6259594E-04
-0.1168890E+01 -0.6327905E-04
-0.1168380E+01 -0.6396927E-04
-0.1167870E+01 -0.6466666E-04
-0.1167360E+01 -0.6537129E-04
-0.1166850E+01 -0.6608322E-04
-0.1166340E+01 -0.6680253E-04
-0.1165830E+01 -0.6752930E-04
-0.1165320E+01 -0.6826359E-04
-0.1164810E+01 -0.6900547E-04
-0.1164300E+01 -0.6975503E-04
-0.1163790E+01 -0.7051232E-04
-0.1163280E+01 -0.7127744E-04
-0.1162770E+01 -0.7205045E-04
-0.1162260E+01 -0.7283144E-04
-0.1161750E+01 -0.7362048E-04
-0.1161240E+01 -0.7441765E-04
-0.1160730E+01 -0.7522303E-04
-0.1160220E+01 -0.7603671E-04
-0.1159710E+01 -0.7685876E-04
-0.1159200E+01 -0.7768927E-04
-0.1158690E+01 -0.7852832E-04
-0.1158180E+01 -0.7937599E-04
-0.1157670E+01 -0.8023237E-04
-0.1157160E+01 -0.8109754E-04
-0.1156650E+01 -0.8197159E-04
-0.1156140E+01 -0.8285460E-04
-0.1155630E+01 -0.8374666E-04
-0.1155120E+01 -0.8464785E-04
-0.1154610E+01 -0.8555827E-04
-0.1154100E+01 -0.8647800E-04
-0.1153590E+01 -0.8740713E-04
-0.1153080E+01 -0.8834575E-04
-0.1152570E+01 -0.8929395E-04
-0.1152060E+01 -0.9025182E-04
-0.1151550E+01 -0.9121946E-04
-0.1151040E+01 -0.9219695E-04
-0.1150530E+01 -0.9318439E-04
-0.1150020E+01 -0.9418188E-04
-0.1149510E+01 -0.9518951E-04
-0.1149000E+01 -0.9620739E-04
-0.1148490E+01 -0.9723561E-04
-0.1147980E+01 -0.9827428E-04
-0.1147470E+01 -0.9932349E-04
-0.1146960E+01 -0.1003833E-03
-0.1146450E+01 -0.1014539E-03
-0.1145940E+01 -0.1025354E-03
-0.1145430E+01 -0.1036278E-03
-0.1144920E+01 -0.1047312E-03
-0.1144410E+01 -0.1058459E-03
-0.1143900E+01 -0.1069717E-03
-0.1143390E+01 -0.1081090E-03
-0.1142880E+01 -0.1092578E-03
-0.1142370E+01 -0.1104181E-03
-0.1141860E+01 -0.1115901E-03
-0.1141350E+01 -0.1127740E-03
-0.1140840E+01 -0.1139698E-03
-0.1140330E+01 -0.1151776E-03
-0.1139820E+01 -0.1163975E-03
-0.1139310E+01 -0.1176298E-03
-0.1138800E+01 -0.1188744E-03
-0.1138290E+01 -0.1201315E-03
-0.1137780E+01 -0.1214012E-03
-0.1137270E+01 -0.1226836E-03
-0.1136760E+01 -0.1239790E-03
-0.1136250E+01 -0.1252872E-03
-0.1135740E+01 -0.1266086E-03
-0.1135230E+01 -0.1279432E-03
-0.1134720E+01 -0.1292911E-03
-0.1134210E+01 -0.1306526E-03
-0.1133700E+01 -0.1320276E-03
-0.1133190E+01 -0.1334164E-03
-0.1132680E+01 -0.1348190E-03
-0.1132170E+01 -0.1362356E-03
-0.1131660E+01 -0.1376663E-03
-0.1131150E+01 -0.1391113E-03
-0.1130640E+01 -0.1405706E-03
-0.1130130E+01 -0.1420445E-03
-0.1129620E+01 -0.1435330E-03
-0.1129110E+01 -0.1450363E-03
-0.1128600E+01 -0.1465546E-03
-0.1128090E+01 -0.1480879E-03
-0.1127580E+01 -0.1496364E-03
-0.1127070E+01 -0.1512003E-03
-0.1126560E+01 -0.1527797E-03
-0.1126050E+01 -0.1543747E-03
-0.1125540E+01 -0.1559854E-03
-0.1125030E+01 -0.1576121E-03
-0.1124520E+01 -0.1592549E-03
-0.1124010E+01 -0.1609139E-03
-0.1123500E+01 -0.1625893E-03
-0.1122990E+01 -0.1642812E-03
-0.1122480E+01 -0.1659897E-03
-0.1121970E+01 -0.1677151E-03
-0.1121460E+01 -0.1694575E-03
-0.1120950E+01 -0.1712170E-03
-0.1120440E+01 -0.1729939E-03
-0.1119930E+01 -0.1747882E-03
-0.1119420E+01 -0.1766001E-03
-0.1118910E+01 -0.1784299E-03
-0.1118400E+01 -0.1802775E-03
-0.1117890E+01 -0.1821433E-03
-0.1117380E+01 -0.1840274E-03
-0.1116870E+01 -0.1859299E-03
-0.1116360E+01 -0.1878511E-03
-0.1115850E+01 -0.1897910E-03
-0.1115340E+01 -0.1917499E-03
-0.1114830E+01 -0.1937280E-03
-0.1114320E+01 -0.1957253E-03
-0.1113810E+01 -0.1977421E-03
-0.1113300E+01 -0.1997786E-03
-0.1112790E+01 -0.2018350E-03
-0.1112280E+01 -0.2039113E-03
-0.1111770E+01 -0.2060079E-03
-0.1111260E+01 -0.2081249E-03
-0.1110750E+01 -0.2102624E-03
-0.1110240E+01 -0.2124207E-03
-0.1109730E+01 -0.2145999E-03
-0.1109220E+01 -0.2168003E-03
-0.1108710E+01 -0.2190221E-03
-0.1108200E+01 -0.2212653E-03
-0.1107690E+01 -0.2235303E-03
-0.1107180E+01 -0.2258172E-03
-0.1106670E+01 -0.2281263E-03
-0.1106160E+01 -0.2304577E-03
-0.1105650E+01 -0.2328116E-03
-0.1105140E+01 -0.2351882E-03
-0.1104630E+01 -0.2375878E-03
-0.1104120E+01 -0.2400105E-03
-0.1103610E+01 -0.2424565E-03
-0.1103100E+01 -0.2449261E-03
-0.1102590E+01 -0.2474195E-03
-0.1102080E+01 -0.2499368E-03
-0.1101570E+01 -0.2524783E-03
-0.1101060E+01 -0.2550443E-03
-0.1100550E+01 -0.2576348E-03
-0.1100040E+01 -0.2602503E-03
-0.1099530E+01 -0.2628908E-03
-0.1099020E+01 -0.2655566E-03
-0.1098510E+01 -0.2682480E-03
-0.1098000E+01 -0.2709651E-03
-0.1097490E+01 -0.2737082E-03
-0.1096980E+01 -0.2764775E-03
-0.1096470E+01 -0.2792732E-03
-0.1095960E+01 -0.2820957E-03
-0.1095450E+01 -0.2849450E-03
-0.1094940E+01 -0.2878216E-03
-0.1094430E+01 -0.2907255E-03
-0.1093920E+01 -0.2936571E-03
-0.1093410E+01 -0.2966166E-03
-0.1092900E+01 -0.2996043E-03
-0.1092390E+01 -0.3026203E-03
-0.1091880E+01 -0.3056650E-03
-0.1091370E+01 -0.3087386E-03
-0.1090860E+01 -0.3118414E-03
-0.1090350E+01 -0.3149735E-03
-0.1089840E+01 -0.3181354E-03
-0.1089330E+01 -0.3213271E-03
-0.1088820E+01 -0.3245491E-03
-0.1088310E+01 -0.3278015E-03
-0.1087800E+01 -0.3310846E-03
-0.1087290E+01 -0.3343988E-03
-0.1086780E+01 -0.3377442E-03
-0.1086270E+01 -0.3411212E-03
-0.1085760E+01 -0.3445300E-03
-0.1085250E+01 -0.3479709E-03
-0.1084740E+01 -0.3514442E-03
-0.1084230E+01 -0.3549502E-03
-0.1083720E+01 -0.3584891E-03
-0.1083210E+01 -0.3620613E-03
-0.1082700E+01 -0.3656671E-03
-0.1082190E+01 -0.3693067E-03
-0.1081680E+01 -0.3729804E-03
-0.1081170E+01 -0.3766885E-03
-0.1080660E+01 -0.3804314E-03
-0.1080150E+01 -0.3842093E-03
-0.1079640E+01 -0.3880225E-03
-0.1079130E+01 -0.3918714E-03
-0.1078620E+01 -0.3957563E-03
-0.1078110E+01 -0.3996773E-03
-0.1077600E+01 -0.4036350E-03
-0.1077090E+01 -0.4076295E-03
-0.1076580E+01 -0.4116613E-03
-0.1076070E+01 -0.4157306E-03
-0.1075560E+01 -0.4198377E-03
-0.1075050E+01 -0.4239830E-03
-0.1074540E+01 -0.4281668E-03
-0.1074030E+01 -0.4323895E-03
-0.1073520E+01 -0.4366514E-03
-0.1073010E+01 -0.4409528E-03
-0.1072500E+01 -0.4452940E-03
-0.1071990E+01 -0.4496755E-03
-0.1071480E+01 -0.4540976E-03
-0.1070970E+01 -0.4585605E-03
-0.1070460E+01 -0.4630647E-03
-0.1069950E+01 -0.4676105E-03
-0.1069440E+01 -0.4721983E-03
-0.1068930E+01 -0.4768284E-03
-0.1068420E+01 -0.4815012E-03
-0.1067910E+01 -0.4862171E-03
-0.1067400E+01 -0.4909763E-03
-0.1066890E+01 -0.4957794E-03
-0.1066380E+01 -0.5006266E-03
-0.1065870E+01 -0.5055183E-03
-0.1065360E+01 -0.5104549E-03
-0.1064850E+01 -0.5154369E-03
-0.1064340E+01 -0.5204645E-03
-0.1063830E+01 -0.5255382E-03
-0.1063320E+01 -0.5306583E-03
-0.1062810E+01 -0.5358253E-03
-0.1062300E+01 -0.5410395E-03
-0.1061790E+01 -0.5463014E-03
-0.1061280E+01 -0.5516114E-03
-0.1060770E+01 -0.5569698E-03
-0.1060260E+01 -0.5623771E-03
-0.1059750E+01 -0.5678337E-03
-0.1059240E+01 -0.5733399E-03
-0.1058730E+01 -0.5788964E-03
-0.1058220E+01 -0.5845033E-03
-0.1057710E+01 -0.5901613E-03
-0.1057200E+01 -0.5958707E-03
-0.1056690E+01 -0.6016319E-03
-0.1056180E+01 -0.6074454E-03
-0.1055670E+01 -0.6133115E-03
-0.1055160E+01 -0.6192309E-03
-0.1054650E+01 -0.6252038E-03
-0.1054140E+01 -0.6312307E-03
-0.1053630E+01 -0.6373121E-03
-0.1053120E+01 -0.6434485E-03
-0.1052610E+01 -0.6496403E-03
-0.1052100E+01 -0.6558879E-03
-0.1051590E+01 -0.6621919E-03
-0.1051080E+01 -0.6685528E-03
-0.1050570E+01 -0.6749709E-03
-0.1050060E+01 -0.6814467E-03
-0.1049550E+01 -0.6879808E-03
-0.1049040E+01 -0.6945736E-03
-0.1048530E+01 -0.7012255E-03
-0.1048020E+01 -0.7079372E-03
-0.1047510E+01 -0.7147091E-03
-0.1047000E+01 -0.7215416E-03
-0.1046490E+01 -0.7284353E-03
-0.1045980E+01 -0.7353908E-03
-0.1045470E+01 -0.7424084E-03
-0.1044960E+01 -0.7494887E-03
-0.1044450E+01 -0.7566323E-03
-0.1043940E+01 -0.7638396E-03
-0.1043430E+01 -0.7711112E-03
-0.1042920E+01 -0.7784477E-03
-0.1042410E+01 -0.7858494E-03
-0.1041900E+01 -0.7933170E-03
-0.1041390E+01 -0.8008511E-03
-0.1040880E+01 -0.8084521E-03
-0.1040370E+01 -0.8161207E-03
-0.1039860E+01 -0.8238573E-03
-0.1039350E+01 -0.8316626E-03
-0.1038840E+01 -0.8395370E-03
-0.1038330E+01 -0.8474811E-03
-0.1037820E+01 -0.8554955E-03
-0.1037310E+01 -0.8635808E-03
-0.1036800E+01 -0.8717376E-03
-0.1036290E+01 -0.8799664E-03
-0.1035780E+01 -0.8882679E-03
-0.1035270E+01 -0.8966425E-03
-0.1034760E+01 -0.9050909E-03
-0.1034250E+01 -0.9136138E-03
-0.1033740E+01 -0.9222117E-03
-0.1033230E+01 -0.9308853E-03
-0.1032720E+01 -0.9396350E-03
-0.1032210E+01 -0.9484617E-03
-0.1031700E+01 -0.9573658E-03
-0.1031190E+01 -0.9663481E-03
-0.1030680E+01 -0.9754091E-03
-0.1030170E+01 -0.9845494E-03
-0.1029660E+01 -0.9937697E-03
-0.1029150E+01 -0.1003071E-02
-0.1028640E+01 -0.1012453E-02
-0.1028130E+01 -0.1021917E-02
-0.1027620E+01 -0.1031464E-02
-0.1027110E+01 -0.1041094E-02
-0.1026600E+01 -0.1050808E-02
-0.1026090E+01 -0.1060606E-02
-0.1025580E+01 -0.1070490E-02
-0.1025070E+01 -0.1080460E-02
-0.1024560E+01 -0.1090516E-02
-0.1024050E+01 -0.1100660E-02
-0.1023540E+01 -0.1110892E-02
-0.1023030E+01 -0.1121212E-02
-0.1022520E+01 -0.1131622E-02
-0.1022010E+01 -0.1142122E-02
-0.1021500E+01 -0.1152713E-02
-0.1020990E+01 -0.1163396E-02
-0.1020480E+01 -0.1174170E-02
-0.1019970E+01 -0.1185038E-02
-0.1019460E+01 -0.1196000E-02
-0.1018950E+01 -0.1207056E-02
-0.1018440E+01 -0.1218207E-02
-0.1017930E+01 -0.1229454E-02
-0.1017420E+01 -0.1240798E-02
-0.1016910E+01 -0.1252240E-02
-0.1016400E+01 -0.1263780E-02
-0.1015890E+01 -0.1275419E-02
-0.1015380E+01 -0.1287157E-02
-0.1014870E+01 -0.1298997E-02
-0.1014360E+01 -0.1310938E-02
-0.1013850E+01 -0.1322981E-02
-0.1013340E+01 -0.1335127E-02
-0.1012830E+01 -0.1347377E-02
-0.1012320E+01 -0.1359731E-02
-0.1011810E+01 -0.1372191E-02
-0.1011300E+01 -0.1384757E-02
-0.1010790E+01 -0.1397430E-02
-0.1010280E+01 -0.1410211E-02
-0.1009770E+01 -0.1423101E-02
-0.1009260E+01 -0.1436101E-02
-0.1008750E+01 -0.1449211E-02
-0.1008240E+01 -0.1462432E-02
-0.1007730E+01 -0.1475765E-02
-0.1007220E+01 -0.1489212E-02
-0.1006710E+01 -0.1502772E-02
-0.1006200E+01 -0.1516447E-02
-0.1005690E+01 -0.1530238E-02
-0.1005180E+01 -0.1544146E-02
-0.1004670E+01 -0.1558171E-02
-0.1004160E+01 -0.1572314E-02
-0.1003650E+01 -0.1586577E-02
-0.1003140E+01 -0.1600959E-02
-0.1002630E+01 -0.1615464E-02
-0.1002120E+01 -0.1630090E-02
-0.1001610E+01 -0.1644839E-02
-0.1001100E+01 -0.1659712E-02
-0.1000590E+01 -0.1674710E-02
-0.1000080E+01 -0.1689834E-02
-0.9995700E+00 -0.1705084E-02
-0.9990600E+00 -0.1720463E-02
-0.9985500E+00 -0.1735970E-02
-0.9980400E+00 -0.1751606E-02
-0.9975300E+00 -0.1767374E-02
-0.9970200E+00 -0.1783273E-02
-0.9965100E+00 -0.1799304E-02
-0.9960000E+00 -0.1815470E-02
-0.9954900E+00 -0.1831770E-02
-0.9949800E+00 -0.1848206E-02
-0.9944700E+00 -0.1864778E-02
-0.9939600E+00 -0.1881489E-02
-0.9934500E+00 -0.1898338E-02
-0.9929400E+00 -0.1915328E-02
-0.9924300E+00 -0.1932458E-02
-0.9919200E+00 -0.1949730E-02
-0.9914100E+00 -0.1967146E-02
-0.9909000E+00 -0.1984705E-02
-0.9903900E+00 -0.2002410E-02
-0.9898800E+00 -0.2020261E-02
-0.9893700E+00 -0.2038260E-02
-0.9888600E+00 -0.2056407E-02
-0.9883500E+00 -0.2074704E-02
-0.9878400E+00 -0.2093151E-02
-0.9873300E+00 -0.2111750E-02
-0.9868200E+00 -0.2130502E-02
-0.9863100E+00 -0.2149409E-02
-0.9858000E+00 -0.2168470E-02
-0.9852900E+00 -0.2187688E-02
-0.9847800E+00 -0.2207064E-02
-0.9842700E+00 -0.2226599E-02
-0.9837600E+00 -0.2246293E-02
-0.9832500E+00 -0.2266149E-02
-0.9827400E+00 -0.2286167E-02
-0.9822300E+00 -0.2306348E-02
-0.9817200E+00 -0.2326695E-02
-0.9812100E+00 -0.2347207E-02
-0.9807000E+00 -0.2367886E-02
-0.9801900E+00 -0.2388735E-02
-0.9796800E+00 -0.2409752E-02
-0.9791700E+00 -0.2430941E-02
-0.9786600E+00 -0.2452302E-02
-0.9781500E+00 -0.2473836E-02
-0.9776400E+00 -0.2495545E-02
-0.9771300E+00 -0.2517430E-02
-0.9766200E+00 -0.2539492E-02
-0.9761100E+00 -0.2561732E-02
-0.9756000E+00 -0.2584153E-02
-0.9750900E+00 -0.2606754E-02
-0.9745800E+00 -0.2629539E-02
-0.9740700E+00 -0.2652506E-02
-0.9735600E+00 -0.2675659E-02
-0.9730500E+00 -0.2698999E-02
-0.9725400E+00 -0.2722526E-02
-0.9720300E+00 -0.2746243E-02
-0.9715200E+00 -0.2770150E-02
-0.9710100E+00 -0.2794249E-02
-0.9705000E+00 -0.2818542E-02
-0.9699900E+00 -0.2843030E-02
-0.9694800E+00 -0.2867713E-02
-0.9689700E+00 -0.2892595E-02
-0.9684600E+00 -0.2917675E-02
-0.9679500E+00 -0.2942956E-02
-0.9674400E+00 -0.2968439E-02
-0.9669300E+00 -0.2994125E-02
-0.9664200E+00 -0.3020016E-02
-0.9659100E+00 -0.3046113E-02
-0.9654000E+00 -0.3072417E-02
-0.9648900E+00 -0.3098931E-02
-0.9643800E+00 -0.3125656E-02
-0.9638700E+00 -0.3152593E-02
-0.9633600E+00 -0.3179743E-02
-0.9628500E+00 -0.3207109E-02
-0.9623400E+00 -0.3234691E-02
-0.9618300E+00 -0.3262492E-02
-0.9613200E+00 -0.3290513E-02
-0.9608100E+00 -0.3318755E-02
-0.9603000E+00 -0.3347220E-02
-0.9597900E+00 -0.3375910E-02
-0.9592800E+00 -0.3404826E-02
-0.9587700E+00 -0.3433970E-02
-0.9582600E+00 -0.3463343E-02
-0.9577500E+00 -0.3492947E-02
-0.9572400E+00 -0.3522784E-02
-0.9567300E+00 -0.3552855E-02
-0.9562200E+00 -0.3583162E-02
-0.9557100E+00 -0.3613706E-02
-0.9552000E+00 -0.3644490E-02
-0.9546900E+00 -0.3675514E-02
-0.9541800E+00 -0.3706781E-02
-0.9536700E+00 -0.3738293E-02
-0.9531600E+00 -0.3770050E-02
-0.9526500E+00 -0.3802055E-02
-0.9521400E+00 -0.3834310E-02
-0.9516300E+00 -0.3866816E-02
-0.9511200E+00 -0.3899574E-02
-0.9506100E+00 -0.3932587E-02
-0.9501000E+00 -0.3965857E-02
-0.9495900E+00 -0.3999385E-02
-0.9490800E+00 -0.4033173E-02
-0.9485700E+00 -0.4067222E-02
-0.9480600E+00 -0.4101535E-02
-0.9475500E+00 -0.4136114E-02
-0.9470400E+00 -0.4170960E-02
-0.9465300E+00 -0.4206075E-02
-0.9460200E+00 -0.4241460E-02
-0.9455100E+00 -0.4277119E-02
-0.9450000E+00 -0.4313052E-02
-0.9444900E+00 -0.4349262E-02
-0.9439800E+00 -0.4385751E-02
-0.9434700E+00 -0.4422520E-02
-0.9429600E+00 -0.4459571E-02
-0.9424500E+00 -0.4496907E-02
-0.9419400E+00 -0.4534529E-02
-0.9414300E+00 -0.4572439E-02
-0.9409200E+00 -0.4610639E-02
-0.9404100E+00 -0.4649131E-02
-0.9399000E+00 -0.4687916E-02
-0.9393900E+00 -0.4726999E-02
-0.9388800E+00 -0.4766378E-02
-0.9383700E+00 -0.4806058E-02
-0.9378600E+00 -0.4846039E-02
-0.9373500E+00 -0.4886325E-02
-0.9368400E+00 -0.4926917E-02
-0.9363300E+00 -0.4967817E-02
-0.9358200E+00 -0.5009027E-02
-0.9353100E+00 -0.5050550E-02
-0.9348000E+00 -0.5092387E-02
-0.9342900E+00 -0.5134541E-02
-0.9337800E+00 -0.5177014E-02
-0.9332700E+00 -0.5219807E-02
-0.9327600E+00 -0.5262924E-02
-0.9322500E+00 -0.5306366E-02
-0.9317400E+00 -0.5350135E-02
-0.9312300E+00 -0.5394234E-02
-0.9307200E+00 -0.5438664E-02
-0.9302100E+00 -0.5483429E-02
-0.9297000E+00 -0.5528529E-02
-0.9291900E+00 -0.5573968E-02
-0.9286800E+00 -0.5619747E-02
-0.9281700E+00 -0.5665869E-02
-0.9276600E+00 -0.5712336E-02
-0.9271500E+00 -0.5759150E-02
-0.9266400E+00 -0.5806314E-02
-0.9261300E+00 -0.5853829E-02
-0.9256200E+00 -0.5901699E-02
-0.9251100E+00 -0.5949926E-02
-0.9246000E+00 -0.5998512E-02
-0.9240900E+00 -0.6047458E-02
-0.9235800E+00 -0.6096769E-02
-0.9230700E+00 -0.6146446E-02
-0.9225600E+00 -0.6196491E-02
-0.9220500E+00 -0.6246907E-02
-0.9215400E+00 -0.6297696E-02
-0.9210300E+00 -0.6348861E-02
-0.9205200E+00 -0.6400404E-02
-0.9200100E+00 -0.6452328E-02
-0.9195000E+00 -0.6504635E-02
-0.9189900E+00 -0.6557327E-02
-0.9184800E+00 -0.6610407E-02
-0.9179700E+00 -0.6663878E-02
-0.9174600E+00 -0.6717742E-02
-0.9169500E+00 -0.6772002E-02
-0.9164400E+00 -0.6826660E-02
-0.9159300E+00 -0.6881719E-02
-0.9154200E+00 -0.6937180E-02
-0.9149100E+00 -0.6993047E-02
-0.9144000E+00 -0.7049323E-02
-0.9138900E+00 -0.7106010E-02
-0.9133800E+00 -0.7163110E-02
-0.9128700E+00 -0.7220627E-02
-0.9123600E+00 -0.7278563E-02
-0.9118500E+00 -0.7336921E-02
-0.9113400E+00 -0.7395702E-02
-0.9108300E+00 -0.7454912E-02
-0.9103200E+00 -0.7514551E-02
-0.9098100E+00 -0.7574623E-02
-0.9093000E+00 -0.7635130E-02
-0.9087900E+00 -0.7696075E-02
-0.9082800E+00 -0.7757461E-02
-0.9077700E+00 -0.7819290E-02
-0.9072600E+00 -0.7881566E-02
-0.9067500E+00 -0.7944291E-02
-0.9062400E+00 -0.8007469E-02
-0.9057300E+00 -0.8071101E-02
-0.9052200E+00 -0.8135191E-02
-0.9047100E+00 -0.8199742E-02
-0.9042000E+00 -0.8264756E-02
-0.9036900E+00 -0.8330236E-02
-0.9031800E+00 -0.8396186E-02
-0.9026700E+00 -0.8462607E-02
-0.9021600E+00 -0.8529503E-02
-0.9016500E+00 -0.8596877E-02
-0.9011400E+00 -0.8664732E-02
-0.9006300E+00 -0.8733070E-02
-0.9001200E+00 -0.8801896E-02
-0.8996100E+00 -0.8871212E-02
-0.8991000E+00 -0.8941021E-02
-0.8985900E+00 -0.9011326E-02
-0.8980800E+00 -0.9082130E-02
-0.8975700E+00 -0.9153437E-02
-0.8970600E+00 -0.9225248E-02
-0.8965500E+00 -0.9297568E-02
-0.8960400E+00 -0.9370401E-02
-0.8955300E+00 -0.9443747E-02
-0.8950200E+00 -0.9517611E-02
-0.8945100E+00 -0.9591997E-02
-0.8940000E+00 -0.9666907E-02
-0.8934900E+00 -0.9742344E-02
-0.8929800E+00 -0.9818312E-02
-0.8924700E+00 -0.9894813E-02
-0.8919600E+00 -0.9971851E-02
-0.8914500E+00 -0.1004943E-01
-0.8909400E+00 -0.1012755E-01
-0.8904300E+00 -0.1020622E-01
-0.8899200E+00 -0.1028544E-01
-0.8894100E+00 -0.1036521E-01
-0.8889000E+00 -0.1044554E-01
-0.8883900E+00 -0.1052643E-01
-0.8878800E+00 -0.1060788E-01
-0.8873700E+00 -0.1068990E-01
-0.8868600E+00 -0.1077248E-01
-0.8863500E+00 -0.1085565E-01
-0.8858400E+00 -0.1093939E-01
-0.8853300E+00 -0.1102371E-01
-0.8848200E+00 -0.1110861E-01
-0.8843100E+00 -0.1119410E-01
-0.8838000E+00 -0.1128019E-01
-0.8832900E+00 -0.1136686E-01
-0.8827800E+00 -0.1145414E-01
-0.8822700E+00 -0.1154201E-01
-0.8817600E+00 -0.1163050E-01
-0.8812500E+00 -0.1171959E-01
-0.8807400E+00 -0.1180929E-01
-0.8802300E+00 -0.1189961E-01
-0.8797200E+00 -0.1199055E-01
-0.8792100E+00 -0.1208211E-01
-0.8787000E+00 -0.1217430E-01
-0.8781900E+00 -0.1226711E-01
-0.8776800E+00 -0.1236057E-01
-0.8771700E+00 -0.1245465E-01
-0.8766600E+00 -0.1254938E-01
-0.8761500E+00 -0.1264476E-01
-0.8756400E+00 -0.1274078E-01
-0.8751300E+00 -0.1283746E-01
-0.8746200E+00 -0.1293479E-01
-0.8741100E+00 -0.1303279E-01
-0.8736000E+00 -0.1313144E-01
-0.8730900E+00 -0.1323077E-01
-0.8725800E+00 -0.1333077E-01
-0.8720700E+00 -0.1343144E-01
-0.8715600E+00 -0.1353279E-01
-0.8710500E+00 -0.1363483E-01
-0.8705400E+00 -0.1373755E-01
-0.8700300E+00 -0.1384096E-01
-0.8695200E+00 -0.1394507E-01
-0.8690100E+00 -0.1404988E-01
-0.8685000E+00 -0.1415540E-01
-0.8679900E+00 -0.1426162E-01
-0.8674800E+00 -0.1436855E-01
-0.8669700E+00 -0.1447619E-01
-0.8664600E+00 -0.1458456E-01
-0.8659500E+00 -0.1469365E-01
-0.8654400E+00 -0.1480346E-01
-0.8649300E+00 -0.1491401E-01
-0.8644200E+00 -0.1502529E-01
-0.8639100E+00 -0.1513731E-01
-0.8634000E+00 -0.1525008E-01
-0.8628900E+00 -0.1536359E-01
-0.8623800E+00 -0.1547786E-01
-0.8618700E+00 -0.1559288E-01
-0.8613600E+00 -0.1570866E-01
-0.8608500E+00 -0.1582521E-01
-0.8603400E+00 -0.1594253E-01
-0.8598300E+00 -0.1606062E-01
-0.8593200E+00 -0.1617949E-01
-0.8588100E+00 -0.1629914E-01
-0.8583000E+00 -0.1641957E-01
-0.8577900E+00 -0.1654080E-01
-0.8572800E+00 -0.1666282E-01
-0.8567700E+00 -0.1678564E-01
-0.8562600E+00 -0.1690927E-01
-0.8557500E+00 -0.1703370E-01
-0.8552400E+00 -0.1715895E-01
-0.8547300E+00 -0.1728501E-01
-0.8542200E+00 -0.1741189E-01
-0.8537100E+00 -0.1753960E-01
-0.8532000E+00 -0.1766814E-01
-0.8526900E+00 -0.1779752E-01
-0.8521800E+00 -0.1792774E-01
-0.8516700E+00 -0.1805880E-01
-0.8511600E+00 -0.1819070E-01
-0.8506500E+00 -0.1832346E-01
-0.8501400E+00 -0.1845708E-01
-0.8496300E+00 -0.1859156E-01
-0.8491200E+00 -0.1872691E-01
-0.8486100E+00 -0.1886313E-01
-0.8481000E+00 -0.1900022E-01
-0.8475900E+00 -0.1913820E-01
-0.8470800E+00 -0.1927706E-01
-0.8465700E+00 -0.1941682E-01
-0.8460600E+00 -0.1955746E-01
-0.8455500E+00 -0.1969901E-01
-0.8450400E+00 -0.1984147E-01
-0.8445300E+00 -0.1998483E-01
-0.8440200E+00 -0.2012911E-01
-0.8435100E+00 -0.2027430E-01
-0.8430000E+00 -0.2042042E-01
-0.8424900E+00 -0.2056747E-01
-0.8419800E+00 -0.2071545E-01
-0.8414700E+00 -0.2086437E-01
-0.8409600E+00 -0.2101423E-01
-0.8404500E+00 -0.2116505E-01
-0.8399400E+00 -0.2131681E-01
-0.8394300E+00 -0.2146954E-01
-0.8389200E+00 -0.2162322E-01
-0.8384100E+00 -0.2177788E-01
-0.8379000E+00 -0.2193351E-01
-0.8373900E+00 -0.2209012E-01
-0.8368800E+00 -0.2224771E-01
-0.8363700E+00 -0.2240629E-01
-0.8358600E+00 -0.2256586E-01
-0.8353500E+00 -0.2272643E-01
-0.8348400E+00 -0.2288801E-01
-0.8343300E+00 -0.2305060E-01
-0.8338200E+00 -0.2321419E-01
-0.8333100E+00 -0.2337881E-01
-0.8328000E+00 -0.2354445E-01
-0.8322900E+00 -0.2371112E-01
-0.8317800E+00 -0.2387883E-01
-0.8312700E+00 -0.2404758E-01
-0.8307600E+00 -0.2421737E-01
-0.8302500E+00 -0.2438821E-01
-0.8297400E+00 -0.2456011E-01
-0.8292300E+00 -0.2473307E-01
-0.8287200E+00 -0.2490709E-01
-0.8282100E+00 -0.2508219E-01
-0.8277000E+00 -0.2525837E-01
-0.8271900E+00 -0.2543563E-01
-0.8266800E+00 -0.2561397E-01
-0.8261700E+00 -0.2579341E-01
-0.8256600E+00 -0.2597395E-01
-0.8251500E+00 -0.2615559E-01
-0.8246400E+00 -0.2633835E-01
-0.8241300E+00 -0.2652222E-01
-0.8236200E+00 -0.2670721E-01
-0.8231100E+00 -0.2689332E-01
-0.8226000E+00 -0.2708057E-01
-0.8220900E+00 -0.2726896E-01
-0.8215800E+00 -0.2745848E-01
-0.8210700E+00 -0.2764916E-01
-0.8205600E+00 -0.2784099E-01
-0.8200500E+00 -0.2803398E-01
-0.8195400E+00 -0.2822813E-01
-0.8190300E+00 -0.2842346E-01
-0.8185200E+00 -0.2861996E-01
-0.8180100E+00 -0.2881764E-01
-0.8175000E+00 -0.2901652E-01
-0.8169900E+00 -0.2921658E-01
-0.8164800E+00 -0.2941785E-01
-0.8159700E+00 -0.2962032E-01
-0.8154600E+00 -0.2982401E-01
-0.8149500E+00 -0.3002891E-01
-0.8144400E+00 -0.3023503E-01
-0.8139300E+00 -0.3044238E-01
-0.8134200E+00 -0.3065097E-01
-0.8129100E+00 -0.3086080E-01
-0.8124000E+00 -0.3107187E-01
-0.8118900E+00 -0.3128419E-01
-0.8113800E+00 -0.3149777E-01
-0.8108700E+00 -0.3171262E-01
-0.8103600E+00 -0.3192873E-01
-0.8098500E+00 -0.3214612E-01
-0.8093400E+00 -0.3236479E-01
-0.8088300E+00 -0.3258475E-01
-0.8083200E+00 -0.3280600E-01
-0.8078100E+00 -0.3302855E-01
-0.8073000E+00 -0.3325240E-01
-0.8067900E+00 -0.3347757E-01
-0.8062800E+00 -0.3370405E-01
-0.8057700E+00 -0.3393186E-01
-0.8052600E+00 -0.3416100E-01
-0.8047500E+00 -0.3439147E-01
-0.8042400E+00 -0.3462329E-01
-0.8037300E+00 -0.3485646E-01
-0.8032200E+00 -0.3509098E-01
-0.8027100E+00 -0.3532686E-01
-0.8022000E+00 -0.3556411E-01
-0.8016900E+00 -0.3580273E-01
-0.8011800E+00 -0.3604272E-01
-0.8006700E+00 -0.3628411E-01
-0.8001600E+00 -0.3652688E-01
-0.7996500E+00 -0.3677105E-01
-0.7991400E+00 -0.3701663E-01
-0.7986300E+00 -0.3726361E-01
-0.7981200E+00 -0.3751202E-01
-0.7976100E+00 -0.3776184E-01
-0.7971000E+00 -0.3801309E-01
-0.7965900E+00 -0.3826578E-01
-0.7960800E+00 -0.3851991E-01
-0.7955700E+00 -0.3877549E-01
-0.7950600E+00 -0.3903252E-01
-0.7945500E+00 -0.3929101E-01
-0.7940400E+00 -0.3955097E-01
-0.7935300E+00 -0.3981240E-01
-0.7930200E+00 -0.4007531E-01
-0.7925100E+00 -0.4033972E-01
-0.7920000E+00 -0.4060561E-01
-0.7914900E+00 -0.4087301E-01
-0.7909800E+00 -0.4114190E-01
-0.7904700E+00 -0.4141232E-01
-0.7899600E+00 -0.4168425E-01
-0.7894500E+00 -0.4195771E-01
-0.7889400E+00 -0.4223270E-01
-0.7884300E+00 -0.4250922E-01
-0.7879200E+00 -0.4278729E-01
-0.7874100E+00 -0.4306692E-01
-0.7869000E+00 -0.4334810E-01
-0.7863900E+00 -0.4363085E-01
-0.7858800E+00 -0.4391516E-01
-0.7853700E+00 -0.4420106E-01
-0.7848600E+00 -0.4448853E-01
-0.7843500E+00 -0.4477760E-01
-0.7838400E+00 -0.4506827E-01
-0.7833300E+00 -0.4536054E-01
-0.7828200E+00 -0.4565442E-01
-0.7823100E+00 -0.4594992E-01
-0.7818000E+00 -0.4624704E-01
-0.7812900E+00 -0.4654580E-01
-0.7807800E+00 -0.4684619E-01
-0.7802700E+00 -0.4714823E-01
-0.7797600E+00 -0.4745192E-01
-0.7792500E+00 -0.4775727E-01
-0.7787400E+00 -0.4806429E-01
-0.7782300E+00 -0.4837297E-01
-0.7777200E+00 -0.4868334E-01
-0.7772100E+00 -0.4899539E-01
-0.7767000E+00 -0.4930913E-01
-0.7761900E+00 -0.4962458E-01
-0.7756800E+00 -0.4994173E-01
-0.7751700E+00 -0.5026059E-01
-0.7746600E+00 -0.5058117E-01
-0.7741500E+00 -0.5090348E-01
-0.7736400E+00 -0.5122752E-01
-0.7731300E+00 -0.5155330E-01
-0.7726200E+00 -0.5188083E-01
-0.7721100E+00 -0.5221010E-01
-0.7716000E+00 -0.5254114E-01
-0.7710900E+00 -0.5287395E-01
-0.7705800E+00 -0.5320853E-01
-0.7700700E+00 -0.5354490E-01
-0.7695600E+00 -0.5388305E-01
-0.7690500E+00 -0.5422300E-01
-0.7685400E+00 -0.5456474E-01
-0.7680300E+00 -0.5490830E-01
-0.7675200E+00 -0.5525367E-01
-0.7670100E+00 -0.5560087E-01
-0.7665000E+00 -0.5594990E-01
-0.7659900E+00 -0.5630076E-01
-0.7654800E+00 -0.5665347E-01
-0.7649700E+00 -0.5700802E-01
-0.7644600E+00 -0.5736444E-01
-0.7639500E+00 -0.5772272E-01
-0.7634400E+00 -0.5808288E-01
-0.7629300E+00 -0.5844492E-01
-0.7624200E+00 -0.5880884E-01
-0.7619100E+00 -0.5917466E-01
-0.7614000E+00 -0.5954237E-01
-0.7608900E+00 -0.5991200E-01
-0.7603800E+00 -0.6028353E-01
-0.7598700E+00 -0.6065699E-01
-0.7593600E+00 -0.6103238E-01
-0.7588500E+00 -0.6140970E-01
-0.7583400E+00 -0.6178897E-01
-0.7578300E+00 -0.6217018E-01
-0.7573200E+00 -0.6255335E-01
-0.7568100E+00 -0.6293848E-01
-0.7563000E+00 -0.6332558E-01
-0.7557900E+00 -0.6371466E-01
-0.7552800E+00 -0.6410572E-01
-0.7547700E+00 -0.6449877E-01
-0.7542600E+00 -0.6489383E-01
-0.7537500E+00 -0.6529088E-01
-0.7532400E+00 -0.6568996E-01
-0.7527300E+00 -0.6609105E-01
-0.7522200E+00 -0.6649417E-01
-0.7517100E+00 -0.6689933E-01
-0.7512000E+00 -0.6730653E-01
-0.7506900E+00 -0.6771577E-01
-0.7501800E+00 -0.6812707E-01
-0.7496700E+00 -0.6854044E-01
-0.7491600E+00 -0.6895588E-01
-0.7486500E+00 -0.6937339E-01
-0.7481400E+00 -0.6979299E-01
-0.7476300E+00 -0.7021468E-01
-0.7471200E+00 -0.7063847E-01
-0.7466100E+00 -0.7106436E-01
-0.7461000E+00 -0.7149237E-01
-0.7455900E+00 -0.7192249E-01
-0.7450800E+00 -0.7235474E-01
-0.7445700E+00 -0.7278913E-01
-0.7440600E+00 -0.7322565E-01
-0.7435500E+00 -0.7366433E-01
-0.7430400E+00 -0.7410516E-01
-0.7425300E+00 -0.7454815E-01
-0.7420200E+00 -0.7499331E-01
-0.7415100E+00 -0.7544065E-01
-0.7410000E+00 -0.7589018E-01
-0.7404900E+00 -0.7634189E-01
-0.7399800E+00 -0.7679580E-01
-0.7394700E+00 -0.7725192E-01
-0.7389600E+00 -0.7771025E-01
-0.7384500E+00 -0.7817080E-01
-0.7379400E+00 -0.7863357E-01
-0.7374300E+00 -0.7909857E-01
-0.7369200E+00 -0.7956582E-01
-0.7364100E+00 -0.8003531E-01
-0.7359000E+00 -0.8050706E-01
-0.7353900E+00 -0.8098107E-01
-0.7348800E+00 -0.8145734E-01
-0.7343700E+00 -0.8193589E-01
-0.7338600E+00 -0.8241672E-01
-0.7333500E+00 -0.8289984E-01
-0.7328400E+00 -0.8338525E-01
-0.7323300E+00 -0.8387297E-01
-0.7318200E+00 -0.8436300E-01
-0.7313100E+00 -0.8485535E-01
-0.7308000E+00 -0.8535002E-01
-0.7302900E+00 -0.8584702E-01
-0.7297800E+00 -0.8634636E-01
-0.7292700E+00 -0.8684804E-01
-0.7287600E+00 -0.8735208E-01
-0.7282500E+00 -0.8785848E-01
-0.7277400E+00 -0.8836724E-01
-0.7272300E+00 -0.8887837E-01
-0.7267200E+00 -0.8939189E-01
-0.7262100E+00 -0.8990779E-01
-0.7257000E+00 -0.9042608E-01
-0.7251900E+00 -0.9094678E-01
-0.7246800E+00 -0.9146988E-01
-0.7241700E+00 -0.9199540E-01
-0.7236600E+00 -0.9252334E-01
-0.7231500E+00 -0.9305371E-01
-0.7226400E+00 -0.9358650E-01
-0.7221300E+00 -0.9412175E-01
-0.7216200E+00 -0.9465943E-01
-0.7211100E+00 -0.9519957E-01
-0.7206000E+00 -0.9574217E-01
-0.7200900E+00 -0.9628724E-01
-0.7195800E+00 -0.9683479E-01
-0.7190700E+00 -0.9738481E-01
-0.7185600E+00 -0.9793732E-01
-0.7180500E+00 -0.9849233E-01
-0.7175400E+00 -0.9904984E-01
-0.7170300E+00 -0.9960987E-01
-0.7165200E+00 -0.1001724E+00
-0.7160100E+00 -0.1007375E+00
-0.7155000E+00 -0.1013051E+00
-0.7149900E+00 -0.1018752E+00
-0.7144800E+00 -0.1024479E+00
-0.7139700E+00 -0.1030231E+00
-0.7134600E+00 -0.1036008E+00
-0.7129500E+00 -0.1041812E+00
-0.7124400E+00 -0.1047641E+00
-0.7119300E+00 -0.1053495E+00
-0.7114200E+00 -0.1059376E+00
-0.7109100E+00 -0.1065282E+00
-0.7104000E+00 -0.1071214E+00
-0.7098900E+00 -0.1077173E+00
-0.7093800E+00 -0.1083157E+00
-0.7088700E+00 -0.1089167E+00
-0.7083600E+00 -0.1095204E+00
-0.7078500E+00 -0.1101267E+00
-0.7073400E+00 -0.1107356E+00
-0.7068300E+00 -0.1113471E+00
-0.7063200E+00 -0.1119613E+00
-0.7058100E+00 -0.1125782E+00
-0.7053000E+00 -0.1131977E+00
-0.7047900E+00 -0.1138198E+00
-0.7042800E+00 -0.1144447E+00
-0.7037700E+00 -0.1150722E+00
-0.7032600E+00 -0.1157024E+00
-0.7027500E+00 -0.1163353E+00
-0.7022400E+00 -0.1169708E+00
-0.7017300E+00 -0.1176091E+00
-0.7012200E+00 -0.1182501E+00
-0.7007100E+00 -0.1188938E+00
-0.7002000E+00 -0.1195402E+00
-0.6996900E+00 -0.1201893E+00
-0.6991800E+00 -0.1208411E+00
-0.6986700E+00 -0.1214957E+00
-0.6981600E+00 -0.1221530E+00
-0.6976500E+00 -0.1228131E+00
-0.6971400E+00 -0.1234759E+00
-0.6966300E+00 -0.1241414E+00
-0.6961200E+00 -0.1248098E+00
-0.6956100E+00 -0.1254809E+00
-0.6951000E+00 -0.1261548E+00
-0.6945900E+00 -0.1268314E+00
-0.6940800E+00 -0.1275108E+00
-0.6935700E+00 -0.1281931E+00
-0.6930600E+00 -0.1288781E+00
-0.6925500E+00 -0.1295659E+00
-0.6920400E+00 -0.1302565E+00
-0.6915300E+00 -0.1309500E+00
-0.6910200E+00 -0.1316463E+00
-0.6905100E+00 -0.1323453E+00