-0.1200000E+01 -0.6920145E-25
-0.1199490E+01 -0.7095949E-25
-0.1198980E+01 -0.7276184E-25
-0.1198470E+01 -0.7460961E-25
-0.1197960E+01 -0.7650392E-25
-0.1197450E+01 -0.7844594E-25
-0.1196940E+01 -0.8043684E-25
-0.1196430E+01 -0.8247785E-25
-0.1195920E+01 -0.8457020E-25
-0.1195410E+01 -0.8671518E-25
-0.1194900E+01 -0.8891408E-25
-0.1194390E+01 -0.9116825E-25
-0.1193880E+01 -0.9347906E-25
-0.1193370E+01 -0.9584791E-25
-0.1192860E+01 -0.9827627E-25
-0.1192350E+01 -0.1007656E-24
-0.1191840E+01 -0.1033174E-24
-0.1191330E+01 -0.1059333E-24
-0.1190820E+01 -0.1086148E-24
-0.1190310E+01 -0.1113637E-24
-0.1189800E+01 -0.1141815E-24
-0.1189290E+01 -0.1170699E-24
-0.1188780E+01 -0.1200309E-24
-0.1188270E+01 -0.1230661E-24
-0.1187760E+01 -0.1261774E-24
-0.1187250E+01 -0.1293667E-24
-0.1186740E+01 -0.1326360E-24
-0.1186230E+01 -0.1359872E-24
-0.1185720E+01 -0.1394224E-24
-0.1185210E+01 -0.1429436E-24
-0.1184700E+01 -0.1465530E-24
-0.1184190E+01 -0.1502527E-24
-0.1183680E+01 -0.1540451E-24
-0.1183170E+01 -0.1579323E-24
-0.1182660E+01 -0.1619168E-24
-0.1182150E+01 -0.1660010E-24
-0.1181640E+01 -0.1701872E-24
-0.1181130E+01 -0.1744781E-24
-0.1180620E+01 -0.1788762E-24
-0.1180110E+01 -0.1833842E-24
-0.1179600E+01 -0.1880047E-24
-0.1179090E+01 -0.1927407E-24
-0.1178580E+01 -0.1975949E-24
-0.1178070E+01 -0.2025703E-24
-0.1177560E+01 -0.2076700E-24
-0.1177050E+01 -0.2128968E-24
-0.1176540E+01 -0.2182541E-24
-0.1176030E+01 -0.2237450E-24
-0.1175520E+01 -0.2293729E-24
-0.1175010E+01 -0.2351412E-24
-0.1174500E+01 -0.2410532E-24
-0.1173990E+01 -0.2471127E-24
-0.1173480E+01 -0.2533232E-24
-0.1172970E+01 -0.2596885E-24
-0.1172460E+01 -0.2662123E-24
-0.1171950E+01 -0.2728986E-24
-0.1171440E+01 -0.2797515E-24
-0.1170930E+01 -0.2867749E-24
-0.1170420E+01 -0.2939732E-24
-0.1169910E+01 -0.3013506E-24
-0.1169400E+01 -0.3089115E-24
-0.1168890E+01 -0.3166606E-24
-0.1168380E+01 -0.3246022E-24
-0.1167870E+01 -0.3327414E-24
-0.1167360E+01 -0.3410828E-24
-0.1166850E+01 -0.3496314E-24
-0.1166340E+01 -0.3583925E-24
-0.1165830E+01 -0.3673711E-24
-0.1165320E+01 -0.3765727E-24
-0.1164810E+01 -0.3860028E-24
-0.1164300E+01 -0.3956668E-24
-0.1163790E+01 -0.4055708E-24
-0.1163280E+01 -0.4157204E-24
-0.1162770E+01 -0.4261219E-24
-0.1162260E+01 -0.4367813E-24
-0.1161750E+01 -0.4477050E-24
-0.1161240E+01 -0.4588996E-24
-0.1160730E+01 -0.4703716E-24
-0.1160220E+01 -0.4821279E-24
-0.1159710E+01 -0.4941755E-24
-0.1159200E+01 -0.5065215E-24
-0.1158690E+01 -0.5191733E-24
-0.1158180E+01 -0.5321383E-24
-0.1157670E+01 -0.5454242E-24
-0.1157160E+01 -0.5590390E-24
-0.1156650E+01 -0.5729906E-24
-0.1156140E+01 -0.5872873E-24
-0.1155630E+01 -0.6019376E-24
-0.1155120E+01 -0.6169501E-24
-0.1154610E+01 -0.6323336E-24
-0.1154100E+01 -0.6480973E-24
-0.1153590E+01 -0.6642505E-24
-0.1153080E+01 -0.6808026E-24
-0.1152570E+01 -0.6977635E-24
-0.1152060E+01 -0.7151432E-24
-0.1151550E+01 -0.7329519E-24
-0.1151040E+01 -0.7512001E-24
-0.1150530E+01 -0.7698987E-24
-0.1150020E+01 -0.7890585E-24
-0.1149510E+01 -0.8086909E-24
-0.1149000E+01 -0.8288075E-24
-0.1148490E+01 -0.8494202E-24
-0.1147980E+01 -0.8705409E-24
-0.1147470E+01 -0.8921823E-24
-0.1146960E+01 -0.9143568E-24
-0.1146450E+01 -0.9370777E-24
-0.1145940E+01 -0.9603583E-24
-0.1145430E+01 -0.9842122E-24
-0.1144920E+01 -0.1008653E-23
-0.1144410E+01 -0.1033696E-23
-0.1143900E+01 -0.1059355E-23
-0.1143390E+01 -0.1085645E-23
-0.1142880E+01 -0.1112582E-23
-0.1142370E+01 -0.1140181E-23
-0.1141860E+01 -0.1168459E-23
-0.1141350E+01 -0.1197432E-23
-0.1140840E+01 -0.1227117E-23
-0.1140330E+01 -0.1257532E-23
-0.1139820E+01 -0.1288693E-23
-0.1139310E+01 -0.1320620E-23
-0.1138800E+01 -0.1353330E-23
-0.1138290E+01 -0.1386844E-23
-0.1137780E+01 -0.1421180E-23
-0.1137270E+01 -0.1456359E-23
-0.1136760E+01 -0.1492400E-23
-0.1136250E+01 -0.1529326E-23
-0.1135740E+01 -0.1567157E-23
-0.1135230E+01 -0.1605915E-23
-0.1134720E+01 -0.1645624E-23
-0.1134210E+01 -0.1686305E-23
-0.1133700E+01 -0.1727984E-23
-0.1133190E+01 -0.1770683E-23
-0.1132680E+01 -0.1814427E-23
-0.1132170E+01 -0.1859243E-23
-0.1131660E+01 -0.1905156E-23
-0.1131150E+01 -0.1952193E-23
-0.1130640E+01 -0.2000380E-23
-0.1130130E+01 -0.2049746E-23
-0.1129620E+01 -0.2100319E-23
-0.1129110E+01 -0.2152128E-23
-0.1128600E+01 -0.2205204E-23
-0.1128090E+01 -0.2259578E-23
-0.1127580E+01 -0.2315279E-23
-0.1127070E+01 -0.2372342E-23
-0.1126560E+01 -0.2430798E-23
-0.1126050E+01 -0.2490681E-23
-0.1125540E+01 -0.2552026E-23
-0.1125030E+01 -0.2614868E-23
-0.1124520E+01 -0.2679244E-23
-0.1124010E+01 -0.2745190E-23
-0.1123500E+01 -0.2812744E-23
-0.1122990E+01 -0.2881946E-23
-0.1122480E+01 -0.2952835E-23
-0.1121970E+01 -0.3025452E-23
-0.1121460E+01 -0.3099839E-23
-0.1120950E+01 -0.3176038E-23
-0.1120440E+01 -0.3254093E-23
-0.1119930E+01 -0.3334049E-23
-0.1119420E+01 -0.3415952E-23
-0.1118910E+01 -0.3499849E-23
-0.1118400E+01 -0.3585787E-23
-0.1117890E+01 -0.3673817E-23
-0.1117380E+01 -0.3763989E-23
-0.1116870E+01 -0.3856353E-23
-0.1116360E+01 -0.3950964E-23
-0.1115850E+01 -0.4047875E-23
-0.1115340E+01 -0.4147141E-23
-0.1114830E+01 -0.4248820E-23
-0.1114320E+01 -0.4352969E-23
-0.1113810E+01 -0.4459648E-23
-0.1113300E+01 -0.4568917E-23
-0.1112790E+01 -0.4680839E-23
-0.1112280E+01 -0.4795478E-23
-0.1111770E+01 -0.4912898E-23
-0.1111260E+01 -0.5033168E-23
-0.1110750E+01 -0.5156355E-23
-0.1110240E+01 -0.5282529E-23
-0.1109730E+01 -0.5411763E-23
-0.1109220E+01 -0.5544129E-23
-0.1108710E+01 -0.5679703E-23
-0.1108200E+01 -0.5818562E-23
-0.1107690E+01 -0.5960784E-23
-0.1107180E+01 -0.6106452E-23
-0.1106670E+01 -0.6255646E-23
-0.1106160E+01 -0.6408452E-23
-0.1105650E+01 -0.6564956E-23
-0.1105140E+01 -0.6725247E-23
-0.1104630E+01 -0.6889417E-23
-0.1104120E+01 -0.7057556E-23
-0.1103610E+01 -0.7229761E-23
-0.1103100E+01 -0.7406130E-23
-0.1102590E+01 -0.7586761E-23
-0.1102080E+01 -0.7771757E-23
-0.1101570E+01 -0.7961223E-23
-0.1101060E+01 -0.8155265E-23
-0.1100550E+01 -0.8353992E-23
-0.1100040E+01 -0.8557517E-23
-0.1099530E+01 -0.8765955E-23
-0.1099020E+01 -0.8979422E-23
-0.1098510E+01 -0.9198040E-23
-0.1098000E+01 -0.9421931E-23
-0.1097490E+01 -0.9651220E-23
-0.1096980E+01 -0.9886038E-23
-0.1096470E+01 -0.1012652E-22
-0.1095960E+01 -0.1037279E-22
-0.1095450E+01 -0.1062500E-22
-0.1094940E+01 -0.1088328E-22
-0.1094430E+01 -0.1114778E-22
-0.1093920E+01 -0.1141865E-22
-0.1093410E+01 -0.1169604E-22
-0.1092900E+01 -0.1198011E-22
-0.1092390E+01 -0.1227101E-22
-0.1091880E+01 -0.1256891E-22
-0.1091370E+01 -0.1287398E-22
-0.1090860E+01 -0.1318638E-22
-0.1090350E+01 -0.1350629E-22
-0.1089840E+01 -0.1383390E-22
-0.1089330E+01 -0.1416937E-22
-0.1088820E+01 -0.1451290E-22
-0.1088310E+01 -0.1486469E-22
-0.1087800E+01 -0.1522492E-22
-0.1087290E+01 -0.1559381E-22
-0.1086780E+01 -0.1597154E-22
-0.1086270E+01 -0.1635835E-22
-0.1085760E+01 -0.1675443E-22
-0.1085250E+01 -0.1716001E-22
-0.1084740E+01 -0.1757532E-22
-0.1084230E+01 -0.1800058E-22
-0.1083720E+01 -0.1843605E-22
-0.1083210E+01 -0.1888194E-22
-0.1082700E+01 -0.1933852E-22
-0.1082190E+01 -0.1980604E-22
-0.1081680E+01 -0.2028476E-22
-0.1081170E+01 -0.2077493E-22
-0.1080660E+01 -0.2127685E-22
-0.1080150E+01 -0.2179077E-22
-0.1079640E+01 -0.2231699E-22
-0.1079130E+01 -0.2285580E-22
-0.1078620E+01 -0.2340750E-22
-0.1078110E+01 -0.2397238E-22
-0.1077600E+01 -0.2455078E-22
-0.1077090E+01 -0.2514299E-22
-0.1076580E+01 -0.2574936E-22
-0.1076070E+01 -0.2637021E-22
-0.1075560E+01 -0.2700589E-22
-0.1075050E+01 -0.2765674E-22
-0.1074540E+01 -0.2832314E-22
-0.1074030E+01 -0.2900544E-22
-0.1073520E+01 -0.2970402E-22
-0.1073010E+01 -0.3041926E-22
-0.1072500E+01 -0.3115156E-22
-0.1071990E+01 -0.3190133E-22
-0.1071480E+01 -0.3266897E-22
-0.1070970E+01 -0.3345490E-22
-0.1070460E+01 -0.3425956E-22
-0.1069950E+01 -0.3508339E-22
-0.1069440E+01 -0.3592684E-22
-0.1068930E+01 -0.3679038E-22
-0.1068420E+01 -0.3767448E-22
-0.1067910E+01 -0.3857962E-22
-0.1067400E+01 -0.3950630E-22
-0.1066890E+01 -0.4045503E-22
-0.1066380E+01 -0.4142633E-22
-0.1065870E+01 -0.4242073E-22
-0.1065360E+01 -0.4343877E-22
-0.1064850E+01 -0.4448101E-22
-0.1064340E+01 -0.4554802E-22
-0.1063830E+01 -0.4664038E-22
-0.1063320E+01 -0.4775870E-22
-0.1062810E+01 -0.4890357E-22
-0.1062300E+01 -0.5007562E-22
-0.1061790E+01 -0.5127550E-22
-0.1061280E+01 -0.5250386E-22
-0.1060770E+01 -0.5376136E-22
-0.1060260E+01 -0.5504870E-22
-0.1059750E+01 -0.5636656E-22
-0.1059240E+01 -0.5771568E-22
-0.1058730E+01 -0.5909678E-22
-0.1058220E+01 -0.6051061E-22
-0.1057710E+01 -0.6195794E-22
-0.1057200E+01 -0.6343956E-22
-0.1056690E+01 -0.6495628E-22
-0.1056180E+01 -0.6650890E-22
-0.1055670E+01 -0.6809829E-22
-0.1055160E+01 -0.6972528E-22
-0.1054650E+01 -0.7139078E-22
-0.1054140E+01 -0.7309568E-22
-0.1053630E+01 -0.7484090E-22
-0.1053120E+01 -0.7662739E-22
-0.1052610E+01 -0.7845610E-22
-0.1052100E+01 -0.8032805E-22
-0.1051590E+01 -0.8224422E-22
-0.1051080E+01 -0.8420567E-22
-0.1050570E+01 -0.8621345E-22
-0.1050060E+01 -0.8826863E-22
-0.1049550E+01 -0.9037233E-22
-0.1049040E+01 -0.9252569E-22
-0.1048530E+01 -0.9472986E-22
-0.1048020E+01 -0.9698604E-22
-0.1047510E+01 -0.9929543E-22
-0.1047000E+01 -0.1016593E-21
-0.1046490E+01 -0.1040789E-21
-0.1045980E+01 -0.1065555E-21
-0.1045470E+01 -0.1090904E-21
-0.1044960E+01 -0.1116851E-21
-0.1044450E+01 -0.1143409E-21
-0.1043940E+01 -0.1170593E-21
-0.1043430E+01 -0.1198417E-21
-0.1042920E+01 -0.1226895E-21
-0.1042410E+01 -0.1256044E-21
-0.1041900E+01 -0.1285878E-21
-0.1041390E+01 -0.1316414E-21
-0.1040880E+01 -0.1347668E-21
-0.1040370E+01 -0.1379657E-21
-0.1039860E+01 -0.1412398E-21
-0.1039350E+01 -0.1445909E-21
-0.1038840E+01 -0.1480206E-21
-0.1038330E+01 -0.1515310E-21
-0.1037820E+01 -0.1551237E-21
-0.1037310E+01 -0.1588008E-21
-0.1036800E+01 -0.1625643E-21
-0.1036290E+01 -0.1664160E-21
-0.1035780E+01 -0.1703581E-21
-0.1035270E+01 -0.1743927E-21
-0.1034760E+01 -0.1785219E-21
-0.1034250E+01 -0.1827480E-21
-0.1033740E+01 -0.1870731E-21
-0.1033230E+01 -0.1914995E-21
-0.1032720E+01 -0.1960297E-21
-0.1032210E+01 -0.2006660E-21
-0.1031700E+01 -0.2054109E-21
-0.1031190E+01 -0.2102668E-21
-0.1030680E+01 -0.2152365E-21
-0.1030170E+01 -0.2203224E-21
-0.1029660E+01 -0.2255274E-21
-0.1029150E+01 -0.2308541E-21
-0.1028640E+01 -0.2363054E-21
-0.1028130E+01 -0.2418842E-21
-0.1027620E+01 -0.2475933E-21
-0.1027110E+01 -0.2534359E-21
-0.1026600E+01 -0.2594150E-21
-0.1026090E+01 -0.2655338E-21
-0.1025580E+01 -0.2717955E-21
-0.1025070E+01 -0.2782034E-21
-0.1024560E+01 -0.2847608E-21
-0.1024050E+01 -0.2914714E-21
-0.1023540E+01 -0.2983384E-21
-0.1023030E+01 -0.3053657E-21
-0.1022520E+01 -0.3125569E-21
-0.1022010E+01 -0.3199157E-21
-0.1021500E+01 -0.3274461E-21
-0.1020990E+01 -0.3351520E-21
-0.1020480E+01 -0.3430374E-21
-0.1019970E+01 -0.3511066E-21
-0.1019460E+01 -0.3593636E-21
-0.1018950E+01 -0.3678129E-21
-0.1018440E+01 -0.3764590E-21
-0.1017930E+01 -0.3853062E-21
-0.1017420E+01 -0.3943593E-21
-0.1016910E+01 -0.4036230E-21
-0.1016400E+01 -0.4131021E-21
-0.1015890E+01 -0.4228016E-21
-0.1015380E+01 -0.4327266E-21
-0.1014870E+01 -0.4428823E-21
-0.1014360E+01 -0.4532739E-21
-0.1013850E+01 -0.4639069E-21
-0.1013340E+01 -0.4747869E-21
-0.1012830E+01 -0.4859194E-21
-0.1012320E+01 -0.4973104E-21
-0.1011810E+01 -0.5089658E-21
-0.1011300E+01 -0.5208916E-21
-0.1010790E+01 -0.5330941E-21
-0.1010280E+01 -0.5455796E-21
-0.1009770E+01 -0.5583546E-21
-0.1009260E+01 -0.5714257E-21
-0.1008750E+01 -0.5847998E-21
-0.1008240E+01 -0.5984838E-21
-0.1007730E+01 -0.6124847E-21
-0.1007220E+01 -0.6268100E-21
-0.1006710E+01 -0.6414669E-21
-0.1006200E+01 -0.6564631E-21
-0.1005690E+01 -0.6718064E-21
-0.1005180E+01 -0.6875047E-21
-0.1004670E+01 -0.7035662E-21
-0.1004160E+01 -0.7199991E-21
-0.1003650E+01 -0.7368120E-21
-0.1003140E+01 -0.7540136E-21
-0.1002630E+01 -0.7716127E-21
-0.1002120E+01 -0.7896185E-21
-0.1001610E+01 -0.8080402E-21
-0.1001100E+01 -0.8268874E-21
-0.1000590E+01 -0.8461698E-21
-0.1000080E+01 -0.8658972E-21
-0.9995700E+00 -0.8860800E-21
-0.9990600E+00 -0.9067284E-21
-0.9985500E+00 -0.9278532E-21
-0.9980400E+00 -0.9494652E-21
-0.9975300E+00 -0.9715755E-21
-0.9970200E+00 -0.9941955E-21
-0.9965100E+00 -0.1017337E-20
-0.9960000E+00 -0.1041011E-20
-0.9954900E+00 -0.1065231E-20
-0.9949800E+00 -0.1090009E-20
-0.9944700E+00 -0.1115357E-20
-0.9939600E+00 -0.1141289E-20
-0.9934500E+00 -0.1167817E-20
-0.9929400E+00 -0.1194956E-20
-0.9924300E+00 -0.1222719E-20
-0.9919200E+00 -0.1251120E-20
-0.9914100E+00 -0.1280174E-20
-0.9909000E+00 -0.1309897E-20
-0.9903900E+00 -0.1340302E-20
-0.9898800E+00 -0.1371406E-20
-0.9893700E+00 -0.1403225E-20
-0.9888600E+00 -0.1435774E-20
-0.9883500E+00 -0.1469070E-20
-0.9878400E+00 -0.1503131E-20
-0.9873300E+00 -0.1537974E-20
-0.9868200E+00 -0.1573616E-20
-0.9863100E+00 -0.1610076E-20
-0.9858000E+00 -0.1647371E-20
-0.9852900E+00 -0.1685522E-20
-0.9847800E+00 -0.1724548E-20
-0.9842700E+00 -0.1764467E-20
-0.9837600E+00 -0.1805302E-20
-0.9832500E+00 -0.1847071E-20
-0.9827400E+00 -0.1889797E-20
-0.9822300E+00 -0.1933502E-20
-0.9817200E+00 -0.1978206E-20
-0.9812100E+00 -0.2023934E-20
-0.9807000E+00 -0.2070708E-20
-0.9801900E+00 -0.2118551E-20
-0.9796800E+00 -0.2167489E-20
-0.9791700E+00 -0.2217546E-20
-0.9786600E+00 -0.2268746E-20
-0.9781500E+00 -0.2321117E-20
-0.9776400E+00 -0.2374684E-20
-0.9771300E+00 -0.2429475E-20
-0.9766200E+00 -0.2485517E-20
-0.9761100E+00 -0.2542839E-20
-0.9756000E+00 -0.2601469E-20
-0.9750900E+00 -0.2661436E-20
-0.9745800E+00 -0.2722772E-20
-0.9740700E+00 -0.2785507E-20
-0.9735600E+00 -0.2849673E-20
-0.9730500E+00 -0.2915301E-20
-0.9725400E+00 -0.2982425E-20
-0.9720300E+00 -0.3051078E-20
-0.9715200E+00 -0.3121296E-20
-0.9710100E+00 -0.3193113E-20
-0.9705000E+00 -0.3266565E-20
-0.9699900E+00 -0.3341689E-20
-0.9694800E+00 -0.3418523E-20
-0.9689700E+00 -0.3497106E-20
-0.9684600E+00 -0.3577476E-20
-0.9679500E+00 -0.3659674E-20
-0.9674400E+00 -0.3743741E-20
-0.9669300E+00 -0.3829719E-20
-0.9664200E+00 -0.3917652E-20
-0.9659100E+00 -0.4007582E-20
-0.9654000E+00 -0.4099556E-20
-0.9648900E+00 -0.4193617E-20
-0.9643800E+00 -0.4289815E-20
-0.9638700E+00 -0.4388197E-20
-0.9633600E+00 -0.4488811E-20
-0.9628500E+00 -0.4591708E-20
-0.9623400E+00 -0.4696940E-20
-0.9618300E+00 -0.4804557E-20
-0.9613200E+00 -0.4914615E-20
-0.9608100E+00 -0.5027168E-20
-0.9603000E+00 -0.5142270E-20
-0.9597900E+00 -0.5259981E-20
-0.9592800E+00 -0.5380359E-20
-0.9587700E+00 -0.5503462E-20
-0.9582600E+00 -0.5629353E-20
-0.9577500E+00 -0.5758093E-20
-0.9572400E+00 -0.5889746E-20
-0.9567300E+00 -0.6024378E-20
-0.9562200E+00 -0.6162055E-20
-0.9557100E+00 -0.6302845E-20
-0.9552000E+00 -0.6446819E-20
-0.9546900E+00 -0.6594046E-20
-0.9541800E+00 -0.6744601E-20
-0.9536700E+00 -0.6898558E-20
-0.9531600E+00 -0.7055991E-20
-0.9526500E+00 -0.7216980E-20
-0.9521400E+00 -0.7381603E-20
-0.9516300E+00 -0.7549942E-20
-0.9511200E+00 -0.7722079E-20
-0.9506100E+00 -0.7898100E-20
-0.9501000E+00 -0.8078091E-20
-0.9495900E+00 -0.8262140E-20
-0.9490800E+00 -0.8450339E-20
-0.9485700E+00 -0.8642780E-20
-0.9480600E+00 -0.8839556E-20
-0.9475500E+00 -0.9040765E-20
-0.9470400E+00 -0.9246506E-20
-0.9465300E+00 -0.9456879E-20
-0.9460200E+00 -0.9671988E-20
-0.9455100E+00 -0.9891938E-20
-0.9450000E+00 -0.1011684E-19
-0.9444900E+00 -0.1034679E-19
-0.9439800E+00 -0.1058192E-19
-0.9434700E+00 -0.1082234E-19
-0.9429600E+00 -0.1106816E-19
-0.9424500E+00 -0.1131951E-19
-0.9419400E+00 -0.1157650E-19
-0.9414300E+00 -0.1183926E-19
-0.9409200E+00 -0.1210793E-19
-0.9404100E+00 -0.1238263E-19
-0.9399000E+00 -0.1266349E-19
-0.9393900E+00 -0.1295065E-19
-0.9388800E+00 -0.1324426E-19
-0.9383700E+00 -0.1354446E-19
-0.9378600E+00 -0.1385138E-19
-0.9373500E+00 -0.1416519E-19
-0.9368400E+00 -0.1448603E-19
-0.9363300E+00 -0.1481406E-19
-0.9358200E+00 -0.1514944E-19
-0.9353100E+00 -0.1549233E-19
-0.9348000E+00 -0.1584290E-19
-0.9342900E+00 -0.1620131E-19
-0.9337800E+00 -0.1656775E-19
-0.9332700E+00 -0.1694238E-19
-0.9327600E+00 -0.1732540E-19
-0.9322500E+00 -0.1771698E-19
-0.9317400E+00 -0.1811732E-19
-0.9312300E+00 -0.1852661E-19
-0.9307200E+00 -0.1894504E-19
-0.9302100E+00 -0.1937282E-19
-0.9297000E+00 -0.1981016E-19
-0.9291900E+00 -0.2025727E-19
-0.9286800E+00 -0.2071436E-19
-0.9281700E+00 -0.2118165E-19
-0.9276600E+00 -0.2165937E-19
-0.9271500E+00 -0.2214774E-19
-0.9266400E+00 -0.2264702E-19
-0.9261300E+00 -0.2315742E-19
-0.9256200E+00 -0.2367921E-19
-0.9251100E+00 -0.2421262E-19
-0.9246000E+00 -0.2475792E-19
-0.9240900E+00 -0.2531537E-19
-0.9235800E+00 -0.2588523E-19
-0.9230700E+00 -0.2646778E-19
-0.9225600E+00 -0.2706331E-19
-0.9220500E+00 -0.2767208E-19
-0.9215400E+00 -0.2829440E-19
-0.9210300E+00 -0.2893057E-19
-0.9205200E+00 -0.2958088E-19
-0.9200100E+00 -0.3024566E-19
-0.9195000E+00 -0.3092521E-19
-0.9189900E+00 -0.3161986E-19
-0.9184800E+00 -0.3232995E-19
-0.9179700E+00 -0.3305581E-19
-0.9174600E+00 -0.3379779E-19
-0.9169500E+00 -0.3455625E-19
-0.9164400E+00 -0.3533154E-19
-0.9159300E+00 -0.3612403E-19
-0.9154200E+00 -0.3693412E-19
-0.9149100E+00 -0.3776216E-19
-0.9144000E+00 -0.3860858E-19
-0.9138900E+00 -0.3947375E-19
-0.9133800E+00 -0.4035811E-19
-0.9128700E+00 -0.4126206E-19
-0.9123600E+00 -0.4218603E-19
-0.9118500E+00 -0.4313047E-19
-0.9113400E+00 -0.4409582E-19
-0.9108300E+00 -0.4508255E-19
-0.9103200E+00 -0.4609110E-19
-0.9098100E+00 -0.4712198E-19
-0.9093000E+00 -0.4817566E-19
-0.9087900E+00 -0.4925264E-19
-0.9082800E+00 -0.5035343E-19
-0.9077700E+00 -0.5147856E-19
-0.9072600E+00 -0.5262855E-19
-0.9067500E+00 -0.5380394E-19
-0.9062400E+00 -0.5500530E-19
-0.9057300E+00 -0.5623319E-19
-0.9052200E+00 -0.5748819E-19
-0.9047100E+00 -0.5877089E-19
-0.9042000E+00 -0.6008190E-19
-0.9036900E+00 -0.6142182E-19
-0.9031800E+00 -0.6279131E-19
-0.9026700E+00 -0.6419099E-19
-0.9021600E+00 -0.6562152E-19
-0.9016500E+00 -0.6708359E-19
-0.9011400E+00 -0.6857787E-19
-0.9006300E+00 -0.7010508E-19
-0.9001200E+00 -0.7166591E-19
-0.8996100E+00 -0.7326111E-19
-0.8991000E+00 -0.7489142E-19
-0.8985900E+00 -0.7655761E-19
-0.8980800E+00 -0.7826047E-19
-0.8975700E+00 -0.8000078E-19
-0.8970600E+00 -0.8177936E-19
-0.8965500E+00 -0.8359704E-19
-0.8960400E+00 -0.8545468E-19
-0.8955300E+00 -0.8735314E-19
-0.8950200E+00 -0.8929330E-19
-0.8945100E+00 -0.9127608E-19
-0.8940000E+00 -0.9330239E-19
-0.8934900E+00 -0.9537319E-19
-0.8929800E+00 -0.9748945E-19
-0.8924700E+00 -0.9965213E-19
-0.8919600E+00 -0.1018623E-18
-0.8914500E+00 -0.1041209E-18
-0.8909400E+00 -0.1064290E-18
-0.8904300E+00 -0.1087877E-18
-0.8899200E+00 -0.1111981E-18
-0.8894100E+00 -0.1136613E-18
-0.8889000E+00 -0.1161785E-18
-0.8883900E+00 -0.1187508E-18
-0.8878800E+00 -0.1213794E-18
-0.8873700E+00 -0.1240656E-18
-0.8868600E+00 -0.1268105E-18
-0.8863500E+00 -0.1296155E-18
-0.8858400E+00 -0.1324819E-18
-0.8853300E+00 -0.1354109E-18
-0.8848200E+00 -0.1384039E-18
-0.8843100E+00 -0.1414624E-18
-0.8838000E+00 -0.1445877E-18
-0.8832900E+00 -0.1477813E-18
-0.8827800E+00 -0.1510446E-18
-0.8822700E+00 -0.1543791E-18
-0.8817600E+00 -0.1577865E-18
-0.8812500E+00 -0.1612682E-18
-0.8807400E+00 -0.1648259E-18
-0.8802300E+00 -0.1684612E-18
-0.8797200E+00 -0.1721757E-18
-0.8792100E+00 -0.1759713E-18
-0.8787000E+00 -0.1798496E-18
-0.8781900E+00 -0.1838123E-18
-0.8776800E+00 -0.1878614E-18
-0.8771700E+00 -0.1919987E-18
-0.8766600E+00 -0.1962261E-18
-0.8761500E+00 -0.2005455E-18
-0.8756400E+00 -0.2049590E-18
-0.8751300E+00 -0.2094684E-18
-0.8746200E+00 -0.2140759E-18
-0.8741100E+00 -0.2187837E-18
-0.8736000E+00 -0.2235937E-18
-0.8730900E+00 -0.2285084E-18
-0.8725800E+00 -0.2335298E-18
-0.8720700E+00 -0.2386604E-18
-0.8715600E+00 -0.2439023E-18
-0.8710500E+00 -0.2492581E-18
-0.8705400E+00 -0.2547302E-18
-0.8700300E+00 -0.2603210E-18
-0.8695200E+00 -0.2660332E-18
-0.8690100E+00 -0.2718692E-18
-0.8685000E+00 -0.2778318E-18
-0.8679900E+00 -0.2839237E-18
-0.8674800E+00 -0.2901477E-18
-0.8669700E+00 -0.2965066E-18
-0.8664600E+00 -0.3030032E-18
-0.8659500E+00 -0.3096405E-18
-0.8654400E+00 -0.3164216E-18
-0.8649300E+00 -0.3233494E-18
-0.8644200E+00 -0.3304272E-18
-0.8639100E+00 -0.3376582E-18
-0.8634000E+00 -0.3450456E-18
-0.8628900E+00 -0.3525928E-18
-0.8623800E+00 -0.3603032E-18
-0.8618700E+00 -0.3681803E-18
-0.8613600E+00 -0.3762276E-18
-0.8608500E+00 -0.3844488E-18
-0.8603400E+00 -0.3928475E-18
-0.8598300E+00 -0.4014276E-18
-0.8593200E+00 -0.4101930E-18
-0.8588100E+00 -0.4191476E-18
-0.8583000E+00 -0.4282955E-18
-0.8577900E+00 -0.4376407E-18
-0.8572800E+00 -0.4471874E-18
-0.8567700E+00 -0.4569401E-18
-0.8562600E+00 -0.4669029E-18
-0.8557500E+00 -0.4770805E-18
-0.8552400E+00 -0.4874773E-18
-0.8547300E+00 -0.4980981E-18
-0.8542200E+00 -0.5089476E-18
-0.8537100E+00 -0.5200307E-18
-0.8532000E+00 -0.5313524E-18
-0.8526900E+00 -0.5429177E-18
-0.8521800E+00 -0.5547319E-18
-0.8516700E+00 -0.5668001E-18
-0.8511600E+00 -0.5791279E-18
-0.8506500E+00 -0.5917207E-18
-0.8501400E+00 -0.6045841E-18
-0.8496300E+00 -0.6177240E-18
-0.8491200E+00 -0.6311460E-18
-0.8486100E+00 -0.6448564E-18
-0.8481000E+00 -0.6588611E-18
-0.8475900E+00 -0.6731665E-18
-0.8470800E+00 -0.6877789E-18
-0.8465700E+00 -0.7027047E-18
-0.8460600E+00 -0.7179507E-18
-0.8455500E+00 -0.7335236E-18
-0.8450400E+00 -0.7494304E-18
-0.8445300E+00 -0.7656781E-18
-0.8440200E+00 -0.7822739E-18
-0.8435100E+00 -0.7992253E-18
-0.8430000E+00 -0.8165397E-18
-0.8424900E+00 -0.8342247E-18
-0.8419800E+00 -0.8522884E-18
-0.8414700E+00 -0.8707386E-18
-0.8409600E+00 -0.8895835E-18
-0.8404500E+00 -0.9088316E-18
-0.8399400E+00 -0.9284913E-18
-0.8394300E+00 -0.9485713E-18
-0.8389200E+00 -0.9690806E-18
-0.8384100E+00 -0.9900280E-18
-0.8379000E+00 -0.1011423E-17
-0.8373900E+00 -0.1033275E-17
-0.8368800E+00 -0.1055593E-17
-0.8363700E+00 -0.1078388E-17
-0.8358600E+00 -0.1101669E-17
-0.8353500E+00 -0.1125447E-17
-0.8348400E+00 -0.1149733E-17
-0.8343300E+00 -0.1174536E-17
-0.8338200E+00 -0.1199868E-17
-0.8333100E+00 -0.1225739E-17
-0.8328000E+00 -0.1252162E-17
-0.8322900E+00 -0.1279148E-17
-0.8317800E+00 -0.1306709E-17
-0.8312700E+00 -0.1334856E-17
-0.8307600E+00 -0.1363603E-17
-0.8302500E+00 -0.1392961E-17
-0.8297400E+00 -0.1422944E-17
-0.8292300E+00 -0.1453565E-17
-0.8287200E+00 -0.1484836E-17
-0.8282100E+00 -0.1516773E-17
-0.8277000E+00 -0.1549388E-17
-0.8271900E+00 -0.1582697E-17
-0.8266800E+00 -0.1616713E-17
-0.8261700E+00 -0.1651451E-17
-0.8256600E+00 -0.1686927E-17
-0.8251500E+00 -0.1723156E-17
-0.8246400E+00 -0.1760154E-17
-0.8241300E+00 -0.1797937E-17
-0.8236200E+00 -0.1836521E-17
-0.8231100E+00 -0.1875924E-17
-0.8226000E+00 -0.1916162E-17
-0.8220900E+00 -0.1957252E-17
-0.8215800E+00 -0.1999213E-17
-0.8210700E+00 -0.2042063E-17
-0.8205600E+00 -0.2085821E-17
-0.8200500E+00 -0.2130505E-17
-0.8195400E+00 -0.2176135E-17
-0.8190300E+00 -0.2222730E-17
-0.8185200E+00 -0.2270311E-17
-0.8180100E+00 -0.2318898E-17
-0.8175000E+00 -0.2368513E-17
-0.8169900E+00 -0.2419177E-17
-0.8164800E+00 -0.2470912E-17
-0.8159700E+00 -0.2523739E-17
-0.8154600E+00 -0.2577683E-17
-0.8149500E+00 -0.2632766E-17
-0.8144400E+00 -0.2689011E-17
-0.8139300E+00 -0.2746444E-17
-0.8134200E+00 -0.2805089E-17
-0.8129100E+00 -0.2864971E-17
-0.8124000E+00 -0.2926116E-17
-0.8118900E+00 -0.2988551E-17
-0.8113800E+00 -0.3052301E-17
-0.8108700E+00 -0.3117395E-17
-0.8103600E+00 -0.3183861E-17
-0.8098500E+00 -0.3251727E-17
-0.8093400E+00 -0.3321022E-17
-0.8088300E+00 -0.3391775E-17
-0.8083200E+00 -0.3464018E-17
-0.8078100E+00 -0.3537781E-17
-0.8073000E+00 -0.3613096E-17
-0.8067900E+00 -0.3689994E-17
-0.8062800E+00 -0.3768510E-17
-0.8057700E+00 -0.3848676E-17
-0.8052600E+00 -0.3930526E-17
-0.8047500E+00 -0.4014096E-17
-0.8042400E+00 -0.4099422E-17
-0.8037300E+00 -0.4186539E-17
-0.8032200E+00 -0.4275485E-17
-0.8027100E+00 -0.4366299E-17
-0.8022000E+00 -0.4459017E-17
-0.8016900E+00 -0.4553681E-17
-0.8011800E+00 -0.4650330E-17
-0.8006700E+00 -0.4749006E-17
-0.8001600E+00 -0.4849750E-17
-0.7996500E+00 -0.4952605E-17
-0.7991400E+00 -0.5057614E-17
-0.7986300E+00 -0.5164824E-17
-0.7981200E+00 -0.5274278E-17
-0.7976100E+00 -0.5386023E-17
-0.7971000E+00 -0.5500107E-17
-0.7965900E+00 -0.5616578E-17
-0.7960800E+00 -0.5735485E-17
-0.7955700E+00 -0.5856878E-17
-0.7950600E+00 -0.5980809E-17
-0.7945500E+00 -0.6107330E-17
-0.7940400E+00 -0.6236496E-17
-0.7935300E+00 -0.6368359E-17
-0.7930200E+00 -0.6502976E-17
-0.7925100E+00 -0.6640404E-17
-0.7920000E+00 -0.6780700E-17
-0.7914900E+00 -0.6923924E-17
-0.7909800E+00 -0.7070137E-17
-0.7904700E+00 -0.7219399E-17
-0.7899600E+00 -0.7371773E-17
-0.7894500E+00 -0.7527325E-17
-0.7889400E+00 -0.7686118E-17
-0.7884300E+00 -0.7848219E-17
-0.7879200E+00 -0.8013698E-17
-0.7874100E+00 -0.8182623E-17
-0.7869000E+00 -0.8355064E-17
-0.7863900E+00 -0.8531096E-17
-0.7858800E+00 -0.8710790E-17
-0.7853700E+00 -0.8894222E-17
-0.7848600E+00 -0.9081470E-17
-0.7843500E+00 -0.9272610E-17
-0.7838400E+00 -0.9467724E-17
-0.7833300E+00 -0.9666893E-17
-0.7828200E+00 -0.9870199E-17
-0.7823100E+00 -0.1007773E-16
-0.7818000E+00 -0.1028957E-16
-0.7812900E+00 -0.1050581E-16
-0.7807800E+00 -0.1072653E-16
-0.7802700E+00 -0.1095183E-16
-0.7797600E+00 -0.1118181E-16
-0.7792500E+00 -0.1141656E-16
-0.7787400E+00 -0.1165617E-16
-0.7782300E+00 -0.1190075E-16
-0.7777200E+00 -0.1215040E-16
-0.7772100E+00 -0.1240523E-16
-0.7767000E+00 -0.1266532E-16
-0.7761900E+00 -0.1293081E-16
-0.7756800E+00 -0.1320179E-16
-0.7751700E+00 -0.1347838E-16
-0.7746600E+00 -0.1376069E-16
-0.7741500E+00 -0.1404884E-16
-0.7736400E+00 -0.1434295E-16
-0.7731300E+00 -0.1464314E-16
-0.7726200E+00 -0.1494953E-16
-0.7721100E+00 -0.1526225E-16
-0.7716000E+00 -0.1558144E-16
-0.7710900E+00 -0.1590721E-16
-0.7705800E+00 -0.1623971E-16
-0.7700700E+00 -0.1657908E-16
-0.7695600E+00 -0.1692545E-16
-0.7690500E+00 -0.1727896E-16
-0.7685400E+00 -0.1763976E-16
-0.7680300E+00 -0.1800800E-16
-0.7675200E+00 -0.1838383E-16
-0.7670100E+00 -0.1876741E-16
-0.7665000E+00 -0.1915889E-16
-0.7659900E+00 -0.1955843E-16
-0.7654800E+00 -0.1996620E-16
-0.7649700E+00 -0.2038236E-16
-0.7644600E+00 -0.2080709E-16
-0.7639500E+00 -0.2124055E-16
-0.7634400E+00 -0.2168294E-16
-0.7629300E+00 -0.2213442E-16
-0.7624200E+00 -0.2259518E-16
-0.7619100E+00 -0.2306542E-16
-0.7614000E+00 -0.2354531E-16
-0.7608900E+00 -0.2403506E-16
-0.7603800E+00 -0.2453488E-16
-0.7598700E+00 -0.2504495E-16
-0.7593600E+00 -0.2556549E-16
-0.7588500E+00 -0.2609672E-16
-0.7583400E+00 -0.2663884E-16
-0.7578300E+00 -0.2719208E-16
-0.7573200E+00 -0.2775667E-16
-0.7568100E+00 -0.2833283E-16
-0.7563000E+00 -0.2892080E-16
-0.7557900E+00 -0.2952081E-16
-0.7552800E+00 -0.3013312E-16
-0.7547700E+00 -0.3075796E-16
-0.7542600E+00 -0.3139559E-16
-0.7537500E+00 -0.3204628E-16
-0.7532400E+00 -0.3271028E-16
-0.7527300E+00 -0.3338786E-16
-0.7522200E+00 -0.3407931E-16
-0.7517100E+00 -0.3478488E-16
-0.7512000E+00 -0.3550488E-16
-0.7506900E+00 -0.3623959E-16
-0.7501800E+00 -0.3698931E-16
-0.7496700E+00 -0.3775435E-16
-0.7491600E+00 -0.3853500E-16
-0.7486500E+00 -0.3933159E-16
-0.7481400E+00 -0.4014443E-16
-0.7476300E+00 -0.4097386E-16
-0.7471200E+00 -0.4182020E-16
-0.7466100E+00 -0.4268380E-16
-0.7461000E+00 -0.4356501E-16
-0.7455900E+00 -0.4446417E-16
-0.7450800E+00 -0.4538166E-16
-0.7445700E+00 -0.4631783E-16
-0.7440600E+00 -0.4727307E-16
-0.7435500E+00 -0.4824775E-16
-0.7430400E+00 -0.4924228E-16
-0.7425300E+00 -0.5025703E-16
-0.7420200E+00 -0.5129243E-16
-0.7415100E+00 -0.5234889E-16
-0.7410000E+00 -0.5342682E-16
-0.7404900E+00 -0.5452666E-16
-0.7399800E+00 -0.5564885E-16
-0.7394700E+00 -0.5679383E-16
-0.7389600E+00 -0.5796207E-16
-0.7384500E+00 -0.5915402E-16
-0.7379400E+00 -0.6037017E-16
-0.7374300E+00 -0.6161099E-16
-0.7369200E+00 -0.6287699E-16
-0.7364100E+00 -0.6416866E-16
-0.7359000E+00 -0.6548653E-16
-0.7353900E+00 -0.6683110E-16
-0.7348800E+00 -0.6820293E-16
-0.7343700E+00 -0.6960256E-16
-0.7338600E+00 -0.7103053E-16
-0.7333500E+00 -0.7248741E-16
-0.7328400E+00 -0.7397379E-16
-0.7323300E+00 -0.7549025E-16
-0.7318200E+00 -0.7703739E-16
-0.7313100E+00 -0.7861582E-16
-0.7308000E+00 -0.8022618E-16
-0.7302900E+00 -0.8186908E-16
-0.7297800E+00 -0.8354520E-16
-0.7292700E+00 -0.8525518E-16
-0.7287600E+00 -0.8699970E-16
-0.7282500E+00 -0.8877945E-16
-0.7277400E+00 -0.9059513E-16
-0.7272300E+00 -0.9244746E-16
-0.7267200E+00 -0.9433716E-16
-0.7262100E+00 -0.9626499E-16
-0.7257000E+00 -0.9823169E-16
-0.7251900E+00 -0.1002381E-15
-0.7246800E+00 -0.1022849E-15
-0.7241700E+00 -0.1043729E-15
-0.7236600E+00 -0.1065030E-15
-0.7231500E+00 -0.1086760E-15
-0.7226400E+00 -0.1108928E-15
-0.7221300E+00 -0.1131542E-15
-0.7216200E+00 -0.1154611E-15
-0.7211100E+00 -0.1178144E-15
-0.7206000E+00 -0.1202151E-15
-0.7200900E+00 -0.1226640E-15
-0.7195800E+00 -0.1251621E-15
-0.7190700E+00 -0.1277105E-15
-0.7185600E+00 -0.1303101E-15
-0.7180500E+00 -0.1329619E-15
-0.7175400E+00 -0.1356669E-15
-0.7170300E+00 -0.1384262E-15
-0.7165200E+00 -0.1412410E-15
-0.7160100E+00 -0.1441121E-15
-0.7155000E+00 -0.1470409E-15
-0.7149900E+00 -0.1500284E-15
-0.7144800E+00 -0.1530759E-15
-0.7139700E+00 -0.1561843E-15
-0.7134600E+00 -0.1593551E-15
-0.7129500E+00 -0.1625894E-15
-0.7124400E+00 -0.1658884E-15
-0.7119300E+00 -0.1692535E-15
-0.7114200E+00 -0.1726860E-15
-0.7109100E+00 -0.1761871E-15
-0.7104000E+00 -0.1797582E-15
-0.7098900E+00 -0.1834008E-15
-0.7093800E+00 -0.1871162E-15
-0.7088700E+00 -0.1909059E-15
-0.7083600E+00 -0.1947713E-15
-0.7078500E+00 -0.1987139E-15
-0.7073400E+00 -0.2027352E-15
-0.7068300E+00 -0.2068369E-15
-0.7063200E+00 -0.2110204E-15
-0.7058100E+00 -0.2152874E-15
-0.7053000E+00 -0.2196395E-15
-0.7047900E+00 -0.2240784E-15
-0.7042800E+00 -0.2286058E-15
-0.7037700E+00 -0.2332235E-15
-0.7032600E+00 -0.2379332E-15
-0.7027500E+00 -0.2427367E-15
-0.7022400E+00 -0.2476359E-15
-0.7017300E+00 -0.2526326E-15
-0.7012200E+00 -0.2577288E-15
-0.7007100E+00 -0.2629265E-15
-0.7002000E+00 -0.2682275E-15
-0.6996900E+00 -0.2736340E-15
-0.6991800E+00 -0.2791479E-15
-0.6986700E+00 -0.2847715E-15
-0.6981600E+00 -0.2905069E-15
-0.6976500E+00 -0.2963562E-15
-0.6971400E+00 -0.3023216E-15
-0.6966300E+00 -0.3084056E-15
-0.6961200E+00 -0.3146103E-15
-0.6956100E+00 -0.3209381E-15
-0.6951000E+00 -0.3273915E-15
-0.6945900E+00 -0.3339730E-15
-0.6940800E+00 -0.3406849E-15
-0.6935700E+00 -0.3475299E-15
-0.6930600E+00 -0.3545106E-15
-0.6925500E+00 -0.3616296E-15
-0.6920400E+00 -0.3688896E-15
-0.6915300E+00 -0.3762934E-15
-0.6910200E+00 -0.3838437E-15
-0.6905100E+00 -0.3915435E-15