-0.1200000E+01 -0.1906557E-21
-0.1199490E+01 -0.1951659E-21
-0.1198980E+01 -0.1997819E-21
-0.1198470E+01 -0.2045061E-21
-0.1197960E+01 -0.2093409E-21
-0.1197450E+01 -0.2142890E-21
-0.1196940E+01 -0.2193529E-21
-0.1196430E+01 -0.2245353E-21
-0.1195920E+01 -0.2298390E-21
-0.1195410E+01 -0.2352666E-21
-0.1194900E+01 -0.2408211E-21
-0.1194390E+01 -0.2465054E-21
-0.1193880E+01 -0.2523224E-21
-0.1193370E+01 -0.2582753E-21
-0.1192860E+01 -0.2643672E-21
-0.1192350E+01 -0.2706012E-21
-0.1191840E+01 -0.2769808E-21
-0.1191330E+01 -0.2835092E-21
-0.1190820E+01 -0.2901899E-21
-0.1190310E+01 -0.2970266E-21
-0.1189800E+01 -0.3040226E-21
-0.1189290E+01 -0.3111819E-21
-0.1188780E+01 -0.3185081E-21
-0.1188270E+01 -0.3260052E-21
-0.1187760E+01 -0.3336771E-21
-0.1187250E+01 -0.3415278E-21
-0.1186740E+01 -0.3495615E-21
-0.1186230E+01 -0.3577823E-21
-0.1185720E+01 -0.3661947E-21
-0.1185210E+01 -0.3748030E-21
-0.1184700E+01 -0.3836117E-21
-0.1184190E+01 -0.3926254E-21
-0.1183680E+01 -0.4018487E-21
-0.1183170E+01 -0.4112866E-21
-0.1182660E+01 -0.4209440E-21
-0.1182150E+01 -0.4308257E-21
-0.1181640E+01 -0.4409371E-21
-0.1181130E+01 -0.4512834E-21
-0.1180620E+01 -0.4618700E-21
-0.1180110E+01 -0.4727023E-21
-0.1179600E+01 -0.4837860E-21
-0.1179090E+01 -0.4951269E-21
-0.1178580E+01 -0.5067310E-21
-0.1178070E+01 -0.5186042E-21
-0.1177560E+01 -0.5307529E-21
-0.1177050E+01 -0.5431833E-21
-0.1176540E+01 -0.5559019E-21
-0.1176030E+01 -0.5689154E-21
-0.1175520E+01 -0.5822305E-21
-0.1175010E+01 -0.5958543E-21
-0.1174500E+01 -0.6097937E-21
-0.1173990E+01 -0.6240561E-21
-0.1173480E+01 -0.6386489E-21
-0.1172970E+01 -0.6535795E-21
-0.1172460E+01 -0.6688559E-21
-0.1171950E+01 -0.6844857E-21
-0.1171440E+01 -0.7004773E-21
-0.1170930E+01 -0.7168387E-21
-0.1170420E+01 -0.7335785E-21
-0.1169910E+01 -0.7507053E-21
-0.1169400E+01 -0.7682279E-21
-0.1168890E+01 -0.7861555E-21
-0.1168380E+01 -0.8044971E-21
-0.1167870E+01 -0.8232623E-21
-0.1167360E+01 -0.8424607E-21
-0.1166850E+01 -0.8621022E-21
-0.1166340E+01 -0.8821970E-21
-0.1165830E+01 -0.9027554E-21
-0.1165320E+01 -0.9237880E-21
-0.1164810E+01 -0.9453056E-21
-0.1164300E+01 -0.9673193E-21
-0.1163790E+01 -0.9898404E-21
-0.1163280E+01 -0.1012881E-20
-0.1162770E+01 -0.1036452E-20
-0.1162260E+01 -0.1060566E-20
-0.1161750E+01 -0.1085235E-20
-0.1161240E+01 -0.1110473E-20
-0.1160730E+01 -0.1136291E-20
-0.1160220E+01 -0.1162704E-20
-0.1159710E+01 -0.1189725E-20
-0.1159200E+01 -0.1217367E-20
-0.1158690E+01 -0.1245645E-20
-0.1158180E+01 -0.1274574E-20
-0.1157670E+01 -0.1304167E-20
-0.1157160E+01 -0.1334441E-20
-0.1156650E+01 -0.1365410E-20
-0.1156140E+01 -0.1397090E-20
-0.1155630E+01 -0.1429498E-20
-0.1155120E+01 -0.1462650E-20
-0.1154610E+01 -0.1496563E-20
-0.1154100E+01 -0.1531254E-20
-0.1153590E+01 -0.1566741E-20
-0.1153080E+01 -0.1603042E-20
-0.1152570E+01 -0.1640176E-20
-0.1152060E+01 -0.1678160E-20
-0.1151550E+01 -0.1717016E-20
-0.1151040E+01 -0.1756761E-20
-0.1150530E+01 -0.1797417E-20
-0.1150020E+01 -0.1839005E-20
-0.1149510E+01 -0.1881545E-20
-0.1149000E+01 -0.1925059E-20
-0.1148490E+01 -0.1969569E-20
-0.1147980E+01 -0.2015097E-20
-0.1147470E+01 -0.2061668E-20
-0.1146960E+01 -0.2109303E-20
-0.1146450E+01 -0.2158029E-20
-0.1145940E+01 -0.2207868E-20
-0.1145430E+01 -0.2258847E-20
-0.1144920E+01 -0.2310991E-20
-0.1144410E+01 -0.2364326E-20
-0.1143900E+01 -0.2418880E-20
-0.1143390E+01 -0.2474680E-20
-0.1142880E+01 -0.2531753E-20
-0.1142370E+01 -0.2590129E-20
-0.1141860E+01 -0.2649838E-20
-0.1141350E+01 -0.2710908E-20
-0.1140840E+01 -0.2773371E-20
-0.1140330E+01 -0.2837259E-20
-0.1139820E+01 -0.2902603E-20
-0.1139310E+01 -0.2969436E-20
-0.1138800E+01 -0.3037793E-20
-0.1138290E+01 -0.3107706E-20
-0.1137780E+01 -0.3179213E-20
-0.1137270E+01 -0.3252347E-20
-0.1136760E+01 -0.3327146E-20
-0.1136250E+01 -0.3403648E-20
-0.1135740E+01 -0.3481891E-20
-0.1135230E+01 -0.3561914E-20
-0.1134720E+01 -0.3643756E-20
-0.1134210E+01 -0.3727460E-20
-0.1133700E+01 -0.3813068E-20
-0.1133190E+01 -0.3900620E-20
-0.1132680E+01 -0.3990163E-20
-0.1132170E+01 -0.4081739E-20
-0.1131660E+01 -0.4175395E-20
-0.1131150E+01 -0.4271178E-20
-0.1130640E+01 -0.4369135E-20
-0.1130130E+01 -0.4469315E-20
-0.1129620E+01 -0.4571769E-20
-0.1129110E+01 -0.4676546E-20
-0.1128600E+01 -0.4783699E-20
-0.1128090E+01 -0.4893282E-20
-0.1127580E+01 -0.5005349E-20
-0.1127070E+01 -0.5119956E-20
-0.1126560E+01 -0.5237159E-20
-0.1126050E+01 -0.5357017E-20
-0.1125540E+01 -0.5479589E-20
-0.1125030E+01 -0.5604937E-20
-0.1124520E+01 -0.5733122E-20
-0.1124010E+01 -0.5864207E-20
-0.1123500E+01 -0.5998259E-20
-0.1122990E+01 -0.6135342E-20
-0.1122480E+01 -0.6275526E-20
-0.1121970E+01 -0.6418879E-20
-0.1121460E+01 -0.6565473E-20
-0.1120950E+01 -0.6715379E-20
-0.1120440E+01 -0.6868672E-20
-0.1119930E+01 -0.7025428E-20
-0.1119420E+01 -0.7185723E-20
-0.1118910E+01 -0.7349637E-20
-0.1118400E+01 -0.7517251E-20
-0.1117890E+01 -0.7688647E-20
-0.1117380E+01 -0.7863910E-20
-0.1116870E+01 -0.8043126E-20
-0.1116360E+01 -0.8226384E-20
-0.1115850E+01 -0.8413773E-20
-0.1115340E+01 -0.8605387E-20
-0.1114830E+01 -0.8801318E-20
-0.1114320E+01 -0.9001664E-20
-0.1113810E+01 -0.9206522E-20
-0.1113300E+01 -0.9415992E-20
-0.1112790E+01 -0.9630179E-20
-0.1112280E+01 -0.9849186E-20
-0.1111770E+01 -0.1007312E-19
-0.1111260E+01 -0.1030209E-19
-0.1110750E+01 -0.1053622E-19
-0.1110240E+01 -0.1077560E-19
-0.1109730E+01 -0.1102037E-19
-0.1109220E+01 -0.1127064E-19
-0.1108710E+01 -0.1152653E-19
-0.1108200E+01 -0.1178817E-19
-0.1107690E+01 -0.1205568E-19
-0.1107180E+01 -0.1232920E-19
-0.1106670E+01 -0.1260886E-19
-0.1106160E+01 -0.1289480E-19
-0.1105650E+01 -0.1318715E-19
-0.1105140E+01 -0.1348606E-19
-0.1104630E+01 -0.1379167E-19
-0.1104120E+01 -0.1410414E-19
-0.1103610E+01 -0.1442361E-19
-0.1103100E+01 -0.1475023E-19
-0.1102590E+01 -0.1508418E-19
-0.1102080E+01 -0.1542560E-19
-0.1101570E+01 -0.1577467E-19
-0.1101060E+01 -0.1613155E-19
-0.1100550E+01 -0.1649642E-19
-0.1100040E+01 -0.1686946E-19
-0.1099530E+01 -0.1725084E-19
-0.1099020E+01 -0.1764075E-19
-0.1098510E+01 -0.1803938E-19
-0.1098000E+01 -0.1844692E-19
-0.1097490E+01 -0.1886356E-19
-0.1096980E+01 -0.1928952E-19
-0.1096470E+01 -0.1972499E-19
-0.1095960E+01 -0.2017019E-19
-0.1095450E+01 -0.2062532E-19
-0.1094940E+01 -0.2109062E-19
-0.1094430E+01 -0.2156629E-19
-0.1093920E+01 -0.2205259E-19
-0.1093410E+01 -0.2254973E-19
-0.1092900E+01 -0.2305796E-19
-0.1092390E+01 -0.2357751E-19
-0.1091880E+01 -0.2410865E-19
-0.1091370E+01 -0.2465163E-19
-0.1090860E+01 -0.2520670E-19
-0.1090350E+01 -0.2577414E-19
-0.1089840E+01 -0.2635421E-19
-0.1089330E+01 -0.2694720E-19
-0.1088820E+01 -0.2755338E-19
-0.1088310E+01 -0.2817306E-19
-0.1087800E+01 -0.2880652E-19
-0.1087290E+01 -0.2945406E-19
-0.1086780E+01 -0.3011601E-19
-0.1086270E+01 -0.3079267E-19
-0.1085760E+01 -0.3148437E-19
-0.1085250E+01 -0.3219145E-19
-0.1084740E+01 -0.3291422E-19
-0.1084230E+01 -0.3365305E-19
-0.1083720E+01 -0.3440829E-19
-0.1083210E+01 -0.3518029E-19
-0.1082700E+01 -0.3596942E-19
-0.1082190E+01 -0.3677606E-19
-0.1081680E+01 -0.3760059E-19
-0.1081170E+01 -0.3844341E-19
-0.1080660E+01 -0.3930492E-19
-0.1080150E+01 -0.4018552E-19
-0.1079640E+01 -0.4108563E-19
-0.1079130E+01 -0.4200569E-19
-0.1078620E+01 -0.4294613E-19
-0.1078110E+01 -0.4390739E-19
-0.1077600E+01 -0.4488993E-19
-0.1077090E+01 -0.4589422E-19
-0.1076580E+01 -0.4692073E-19
-0.1076070E+01 -0.4796995E-19
-0.1075560E+01 -0.4904237E-19
-0.1075050E+01 -0.5013850E-19
-0.1074540E+01 -0.5125886E-19
-0.1074030E+01 -0.5240399E-19
-0.1073520E+01 -0.5357441E-19
-0.1073010E+01 -0.5477069E-19
-0.1072500E+01 -0.5599338E-19
-0.1071990E+01 -0.5724307E-19
-0.1071480E+01 -0.5852034E-19
-0.1070970E+01 -0.5982580E-19
-0.1070460E+01 -0.6116005E-19
-0.1069950E+01 -0.6252374E-19
-0.1069440E+01 -0.6391750E-19
-0.1068930E+01 -0.6534199E-19
-0.1068420E+01 -0.6679787E-19
-0.1067910E+01 -0.6828583E-19
-0.1067400E+01 -0.6980658E-19
-0.1066890E+01 -0.7136082E-19
-0.1066380E+01 -0.7294928E-19
-0.1065870E+01 -0.7457272E-19
-0.1065360E+01 -0.7623187E-19
-0.1064850E+01 -0.7792754E-19
-0.1064340E+01 -0.7966050E-19
-0.1063830E+01 -0.8143158E-19
-0.1063320E+01 -0.8324160E-19
-0.1062810E+01 -0.8509140E-19
-0.1062300E+01 -0.8698185E-19
-0.1061790E+01 -0.8891383E-19
-0.1061280E+01 -0.9088825E-19
-0.1060770E+01 -0.9290603E-19
-0.1060260E+01 -0.9496811E-19
-0.1059750E+01 -0.9707545E-19
-0.1059240E+01 -0.9922903E-19
-0.1058730E+01 -0.1014299E-18
-0.1058220E+01 -0.1036790E-18
-0.1057710E+01 -0.1059774E-18
-0.1057200E+01 -0.1083262E-18
-0.1056690E+01 -0.1107264E-18
-0.1056180E+01 -0.1131793E-18
-0.1055670E+01 -0.1156859E-18
-0.1055160E+01 -0.1182474E-18
-0.1054650E+01 -0.1208650E-18
-0.1054140E+01 -0.1235399E-18
-0.1053630E+01 -0.1262733E-18
-0.1053120E+01 -0.1290665E-18
-0.1052610E+01 -0.1319208E-18
-0.1052100E+01 -0.1348375E-18
-0.1051590E+01 -0.1378180E-18
-0.1051080E+01 -0.1408637E-18
-0.1050570E+01 -0.1439759E-18
-0.1050060E+01 -0.1471560E-18
-0.1049550E+01 -0.1504057E-18
-0.1049040E+01 -0.1537263E-18
-0.1048530E+01 -0.1571193E-18
-0.1048020E+01 -0.1605865E-18
-0.1047510E+01 -0.1641292E-18
-0.1047000E+01 -0.1677493E-18
-0.1046490E+01 -0.1714483E-18
-0.1045980E+01 -0.1752279E-18
-0.1045470E+01 -0.1790900E-18
-0.1044960E+01 -0.1830362E-18
-0.1044450E+01 -0.1870683E-18
-0.1043940E+01 -0.1911883E-18
-0.1043430E+01 -0.1953980E-18
-0.1042920E+01 -0.1996993E-18
-0.1042410E+01 -0.2040943E-18
-0.1041900E+01 -0.2085848E-18
-0.1041390E+01 -0.2131731E-18
-0.1040880E+01 -0.2178611E-18
-0.1040370E+01 -0.2226511E-18
-0.1039860E+01 -0.2275452E-18
-0.1039350E+01 -0.2325456E-18
-0.1038840E+01 -0.2376547E-18
-0.1038330E+01 -0.2428748E-18
-0.1037820E+01 -0.2482082E-18
-0.1037310E+01 -0.2536574E-18
-0.1036800E+01 -0.2592249E-18
-0.1036290E+01 -0.2649132E-18
-0.1035780E+01 -0.2707249E-18
-0.1035270E+01 -0.2766627E-18
-0.1034760E+01 -0.2827292E-18
-0.1034250E+01 -0.2889272E-18
-0.1033740E+01 -0.2952595E-18
-0.1033230E+01 -0.3017290E-18
-0.1032720E+01 -0.3083387E-18
-0.1032210E+01 -0.3150915E-18
-0.1031700E+01 -0.3219905E-18
-0.1031190E+01 -0.3290389E-18
-0.1030680E+01 -0.3362398E-18
-0.1030170E+01 -0.3435965E-18
-0.1029660E+01 -0.3511122E-18
-0.1029150E+01 -0.3587905E-18
-0.1028640E+01 -0.3666349E-18
-0.1028130E+01 -0.3746487E-18
-0.1027620E+01 -0.3828357E-18
-0.1027110E+01 -0.3911995E-18
-0.1026600E+01 -0.3997440E-18
-0.1026090E+01 -0.4084730E-18
-0.1025580E+01 -0.4173903E-18
-0.1025070E+01 -0.4265002E-18
-0.1024560E+01 -0.4358065E-18
-0.1024050E+01 -0.4453136E-18
-0.1023540E+01 -0.4550257E-18
-0.1023030E+01 -0.4649472E-18
-0.1022520E+01 -0.4750825E-18
-0.1022010E+01 -0.4854362E-18
-0.1021500E+01 -0.4960130E-18
-0.1020990E+01 -0.5068175E-18
-0.1020480E+01 -0.5178547E-18
-0.1019970E+01 -0.5291294E-18
-0.1019460E+01 -0.5406469E-18
-0.1018950E+01 -0.5524120E-18
-0.1018440E+01 -0.5644303E-18
-0.1017930E+01 -0.5767070E-18
-0.1017420E+01 -0.5892476E-18
-0.1016910E+01 -0.6020578E-18
-0.1016400E+01 -0.6151432E-18
-0.1015890E+01 -0.6285097E-18
-0.1015380E+01 -0.6421633E-18
-0.1014870E+01 -0.6561101E-18
-0.1014360E+01 -0.6703563E-18
-0.1013850E+01 -0.6849082E-18
-0.1013340E+01 -0.6997723E-18
-0.1012830E+01 -0.7149553E-18
-0.1012320E+01 -0.7304639E-18
-0.1011810E+01 -0.7463050E-18
-0.1011300E+01 -0.7624856E-18
-0.1010790E+01 -0.7790129E-18
-0.1010280E+01 -0.7958943E-18
-0.1009770E+01 -0.8131372E-18
-0.1009260E+01 -0.8307493E-18
-0.1008750E+01 -0.8487384E-18
-0.1008240E+01 -0.8671125E-18
-0.1007730E+01 -0.8858798E-18
-0.1007220E+01 -0.9050485E-18
-0.1006710E+01 -0.9246271E-18
-0.1006200E+01 -0.9446243E-18
-0.1005690E+01 -0.9650490E-18
-0.1005180E+01 -0.9859101E-18
-0.1004670E+01 -0.1007217E-17
-0.1004160E+01 -0.1028979E-17
-0.1003650E+01 -0.1051205E-17
-0.1003140E+01 -0.1073906E-17
-0.1002630E+01 -0.1097091E-17
-0.1002120E+01 -0.1120772E-17
-0.1001610E+01 -0.1144957E-17
-0.1001100E+01 -0.1169658E-17
-0.1000590E+01 -0.1194886E-17
-0.1000080E+01 -0.1220651E-17
-0.9995700E+00 -0.1246965E-17
-0.9990600E+00 -0.1273840E-17
-0.9985500E+00 -0.1301288E-17
-0.9980400E+00 -0.1329320E-17
-0.9975300E+00 -0.1357948E-17
-0.9970200E+00 -0.1387186E-17
-0.9965100E+00 -0.1417046E-17
-0.9960000E+00 -0.1447541E-17
-0.9954900E+00 -0.1478685E-17
-0.9949800E+00 -0.1510490E-17
-0.9944700E+00 -0.1542972E-17
-0.9939600E+00 -0.1576144E-17
-0.9934500E+00 -0.1610020E-17
-0.9929400E+00 -0.1644616E-17
-0.9924300E+00 -0.1679947E-17
-0.9919200E+00 -0.1716027E-17
-0.9914100E+00 -0.1752874E-17
-0.9909000E+00 -0.1790502E-17
-0.9903900E+00 -0.1828928E-17
-0.9898800E+00 -0.1868169E-17
-0.9893700E+00 -0.1908242E-17
-0.9888600E+00 -0.1949164E-17
-0.9883500E+00 -0.1990954E-17
-0.9878400E+00 -0.2033629E-17
-0.9873300E+00 -0.2077207E-17
-0.9868200E+00 -0.2121709E-17
-0.9863100E+00 -0.2167152E-17
-0.9858000E+00 -0.2213557E-17
-0.9852900E+00 -0.2260944E-17
-0.9847800E+00 -0.2309333E-17
-0.9842700E+00 -0.2358745E-17
-0.9837600E+00 -0.2409202E-17
-0.9832500E+00 -0.2460725E-17
-0.9827400E+00 -0.2513337E-17
-0.9822300E+00 -0.2567061E-17
-0.9817200E+00 -0.2621919E-17
-0.9812100E+00 -0.2677935E-17
-0.9807000E+00 -0.2735133E-17
-0.9801900E+00 -0.2793539E-17
-0.9796800E+00 -0.2853177E-17
-0.9791700E+00 -0.2914072E-17
-0.9786600E+00 -0.2976252E-17
-0.9781500E+00 -0.3039743E-17
-0.9776400E+00 -0.3104572E-17
-0.9771300E+00 -0.3170767E-17
-0.9766200E+00 -0.3238356E-17
-0.9761100E+00 -0.3307369E-17
-0.9756000E+00 -0.3377834E-17
-0.9750900E+00 -0.3449783E-17
-0.9745800E+00 -0.3523246E-17
-0.9740700E+00 -0.3598255E-17
-0.9735600E+00 -0.3674841E-17
-0.9730500E+00 -0.3753037E-17
-0.9725400E+00 -0.3832877E-17
-0.9720300E+00 -0.3914396E-17
-0.9715200E+00 -0.3997627E-17
-0.9710100E+00 -0.4082606E-17
-0.9705000E+00 -0.4169370E-17
-0.9699900E+00 -0.4257955E-17
-0.9694800E+00 -0.4348399E-17
-0.9689700E+00 -0.4440741E-17
-0.9684600E+00 -0.4535021E-17
-0.9679500E+00 -0.4631278E-17
-0.9674400E+00 -0.4729553E-17
-0.9669300E+00 -0.4829888E-17
-0.9664200E+00 -0.4932326E-17
-0.9659100E+00 -0.5036910E-17
-0.9654000E+00 -0.5143684E-17
-0.9648900E+00 -0.5252695E-17
-0.9643800E+00 -0.5363988E-17
-0.9638700E+00 -0.5477609E-17
-0.9633600E+00 -0.5593609E-17
-0.9628500E+00 -0.5712035E-17
-0.9623400E+00 -0.5832937E-17
-0.9618300E+00 -0.5956367E-17
-0.9613200E+00 -0.6082377E-17
-0.9608100E+00 -0.6211020E-17
-0.9603000E+00 -0.6342350E-17
-0.9597900E+00 -0.6476423E-17
-0.9592800E+00 -0.6613296E-17
-0.9587700E+00 -0.6753026E-17
-0.9582600E+00 -0.6895672E-17
-0.9577500E+00 -0.7041293E-17
-0.9572400E+00 -0.7189952E-17
-0.9567300E+00 -0.7341712E-17
-0.9562200E+00 -0.7496635E-17
-0.9557100E+00 -0.7654787E-17
-0.9552000E+00 -0.7816236E-17
-0.9546900E+00 -0.7981047E-17
-0.9541800E+00 -0.8149291E-17
-0.9536700E+00 -0.8321037E-17
-0.9531600E+00 -0.8496359E-17
-0.9526500E+00 -0.8675330E-17
-0.9521400E+00 -0.8858023E-17
-0.9516300E+00 -0.9044517E-17
-0.9511200E+00 -0.9234888E-17
-0.9506100E+00 -0.9429217E-17
-0.9501000E+00 -0.9627585E-17
-0.9495900E+00 -0.9830074E-17
-0.9490800E+00 -0.1003677E-16
-0.9485700E+00 -0.1024776E-16
-0.9480600E+00 -0.1046312E-16
-0.9475500E+00 -0.1068296E-16
-0.9470400E+00 -0.1090736E-16
-0.9465300E+00 -0.1113642E-16
-0.9460200E+00 -0.1137022E-16
-0.9455100E+00 -0.1160887E-16
-0.9450000E+00 -0.1185247E-16
-0.9444900E+00 -0.1210112E-16
-0.9439800E+00 -0.1235492E-16
-0.9434700E+00 -0.1261397E-16
-0.9429600E+00 -0.1287839E-16
-0.9424500E+00 -0.1314828E-16
-0.9419400E+00 -0.1342376E-16
-0.9414300E+00 -0.1370494E-16
-0.9409200E+00 -0.1399194E-16
-0.9404100E+00 -0.1428487E-16
-0.9399000E+00 -0.1458385E-16
-0.9393900E+00 -0.1488902E-16
-0.9388800E+00 -0.1520049E-16
-0.9383700E+00 -0.1551840E-16
-0.9378600E+00 -0.1584287E-16
-0.9373500E+00 -0.1617404E-16
-0.9368400E+00 -0.1651204E-16
-0.9363300E+00 -0.1685703E-16
-0.9358200E+00 -0.1720913E-16
-0.9353100E+00 -0.1756849E-16
-0.9348000E+00 -0.1793526E-16
-0.9342900E+00 -0.1830959E-16
-0.9337800E+00 -0.1869163E-16
-0.9332700E+00 -0.1908155E-16
-0.9327600E+00 -0.1947949E-16
-0.9322500E+00 -0.1988564E-16
-0.9317400E+00 -0.2030014E-16
-0.9312300E+00 -0.2072317E-16
-0.9307200E+00 -0.2115491E-16
-0.9302100E+00 -0.2159553E-16
-0.9297000E+00 -0.2204521E-16
-0.9291900E+00 -0.2250414E-16
-0.9286800E+00 -0.2297250E-16
-0.9281700E+00 -0.2345048E-16
-0.9276600E+00 -0.2393829E-16
-0.9271500E+00 -0.2443611E-16
-0.9266400E+00 -0.2494416E-16
-0.9261300E+00 -0.2546263E-16
-0.9256200E+00 -0.2599174E-16
-0.9251100E+00 -0.2653171E-16
-0.9246000E+00 -0.2708276E-16
-0.9240900E+00 -0.2764510E-16
-0.9235800E+00 -0.2821897E-16
-0.9230700E+00 -0.2880460E-16
-0.9225600E+00 -0.2940223E-16
-0.9220500E+00 -0.3001210E-16
-0.9215400E+00 -0.3063447E-16
-0.9210300E+00 -0.3126957E-16
-0.9205200E+00 -0.3191767E-16
-0.9200100E+00 -0.3257903E-16
-0.9195000E+00 -0.3325393E-16
-0.9189900E+00 -0.3394263E-16
-0.9184800E+00 -0.3464540E-16
-0.9179700E+00 -0.3536255E-16
-0.9174600E+00 -0.3609435E-16
-0.9169500E+00 -0.3684110E-16
-0.9164400E+00 -0.3760310E-16
-0.9159300E+00 -0.3838066E-16
-0.9154200E+00 -0.3917409E-16
-0.9149100E+00 -0.3998371E-16
-0.9144000E+00 -0.4080986E-16
-0.9138900E+00 -0.4165285E-16
-0.9133800E+00 -0.4251303E-16
-0.9128700E+00 -0.4339075E-16
-0.9123600E+00 -0.4428635E-16
-0.9118500E+00 -0.4520021E-16
-0.9113400E+00 -0.4613267E-16
-0.9108300E+00 -0.4708413E-16
-0.9103200E+00 -0.4805496E-16
-0.9098100E+00 -0.4904555E-16
-0.9093000E+00 -0.5005629E-16
-0.9087900E+00 -0.5108760E-16
-0.9082800E+00 -0.5213988E-16
-0.9077700E+00 -0.5321355E-16
-0.9072600E+00 -0.5430905E-16
-0.9067500E+00 -0.5542681E-16
-0.9062400E+00 -0.5656728E-16
-0.9057300E+00 -0.5773091E-16
-0.9052200E+00 -0.5891816E-16
-0.9047100E+00 -0.6012952E-16
-0.9042000E+00 -0.6136546E-16
-0.9036900E+00 -0.6262647E-16
-0.9031800E+00 -0.6391306E-16
-0.9026700E+00 -0.6522574E-16
-0.9021600E+00 -0.6656502E-16
-0.9016500E+00 -0.6793145E-16
-0.9011400E+00 -0.6932557E-16
-0.9006300E+00 -0.7074792E-16
-0.9001200E+00 -0.7219908E-16
-0.8996100E+00 -0.7367960E-16
-0.8991000E+00 -0.7519010E-16
-0.8985900E+00 -0.7673116E-16
-0.8980800E+00 -0.7830339E-16
-0.8975700E+00 -0.7990741E-16
-0.8970600E+00 -0.8154387E-16
-0.8965500E+00 -0.8321340E-16
-0.8960400E+00 -0.8491667E-16
-0.8955300E+00 -0.8665434E-16
-0.8950200E+00 -0.8842712E-16
-0.8945100E+00 -0.9023568E-16
-0.8940000E+00 -0.9208075E-16
-0.8934900E+00 -0.9396305E-16
-0.8929800E+00 -0.9588333E-16
-0.8924700E+00 -0.9784234E-16
-0.8919600E+00 -0.9984084E-16
-0.8914500E+00 -0.1018796E-15
-0.8909400E+00 -0.1039595E-15
-0.8904300E+00 -0.1060813E-15
-0.8899200E+00 -0.1082458E-15
-0.8894100E+00 -0.1104539E-15
-0.8889000E+00 -0.1127064E-15
-0.8883900E+00 -0.1150043E-15
-0.8878800E+00 -0.1173484E-15
-0.8873700E+00 -0.1197397E-15
-0.8868600E+00 -0.1221790E-15
-0.8863500E+00 -0.1246674E-15
-0.8858400E+00 -0.1272058E-15
-0.8853300E+00 -0.1297952E-15
-0.8848200E+00 -0.1324366E-15
-0.8843100E+00 -0.1351311E-15
-0.8838000E+00 -0.1378796E-15
-0.8832900E+00 -0.1406833E-15
-0.8827800E+00 -0.1435433E-15
-0.8822700E+00 -0.1464607E-15
-0.8817600E+00 -0.1494365E-15
-0.8812500E+00 -0.1524720E-15
-0.8807400E+00 -0.1555684E-15
-0.8802300E+00 -0.1587268E-15
-0.8797200E+00 -0.1619485E-15
-0.8792100E+00 -0.1652347E-15
-0.8787000E+00 -0.1685867E-15
-0.8781900E+00 -0.1720058E-15
-0.8776800E+00 -0.1754933E-15
-0.8771700E+00 -0.1790505E-15
-0.8766600E+00 -0.1826789E-15
-0.8761500E+00 -0.1863799E-15
-0.8756400E+00 -0.1901548E-15
-0.8751300E+00 -0.1940052E-15
-0.8746200E+00 -0.1979324E-15
-0.8741100E+00 -0.2019381E-15
-0.8736000E+00 -0.2060239E-15
-0.8730900E+00 -0.2101911E-15
-0.8725800E+00 -0.2144415E-15
-0.8720700E+00 -0.2187768E-15
-0.8715600E+00 -0.2231984E-15
-0.8710500E+00 -0.2277083E-15
-0.8705400E+00 -0.2323081E-15
-0.8700300E+00 -0.2369995E-15
-0.8695200E+00 -0.2417844E-15
-0.8690100E+00 -0.2466647E-15
-0.8685000E+00 -0.2516421E-15
-0.8679900E+00 -0.2567186E-15
-0.8674800E+00 -0.2618961E-15
-0.8669700E+00 -0.2671766E-15
-0.8664600E+00 -0.2725621E-15
-0.8659500E+00 -0.2780548E-15
-0.8654400E+00 -0.2836566E-15
-0.8649300E+00 -0.2893697E-15
-0.8644200E+00 -0.2951964E-15
-0.8639100E+00 -0.3011389E-15
-0.8634000E+00 -0.3071993E-15
-0.8628900E+00 -0.3133801E-15
-0.8623800E+00 -0.3196835E-15
-0.8618700E+00 -0.3261120E-15
-0.8613600E+00 -0.3326680E-15
-0.8608500E+00 -0.3393540E-15
-0.8603400E+00 -0.3461726E-15
-0.8598300E+00 -0.3531264E-15
-0.8593200E+00 -0.3602179E-15
-0.8588100E+00 -0.3674499E-15
-0.8583000E+00 -0.3748252E-15
-0.8577900E+00 -0.3823464E-15
-0.8572800E+00 -0.3900166E-15
-0.8567700E+00 -0.3978385E-15
-0.8562600E+00 -0.4058151E-15
-0.8557500E+00 -0.4139495E-15
-0.8552400E+00 -0.4222447E-15
-0.8547300E+00 -0.4307038E-15
-0.8542200E+00 -0.4393302E-15
-0.8537100E+00 -0.4481269E-15
-0.8532000E+00 -0.4570974E-15
-0.8526900E+00 -0.4662449E-15
-0.8521800E+00 -0.4755731E-15
-0.8516700E+00 -0.4850853E-15
-0.8511600E+00 -0.4947851E-15
-0.8506500E+00 -0.5046763E-15
-0.8501400E+00 -0.5147625E-15
-0.8496300E+00 -0.5250475E-15
-0.8491200E+00 -0.5355352E-15
-0.8486100E+00 -0.5462294E-15
-0.8481000E+00 -0.5571343E-15
-0.8475900E+00 -0.5682540E-15
-0.8470800E+00 -0.5795925E-15
-0.8465700E+00 -0.5911541E-15
-0.8460600E+00 -0.6029431E-15
-0.8455500E+00 -0.6149641E-15
-0.8450400E+00 -0.6272214E-15
-0.8445300E+00 -0.6397196E-15
-0.8440200E+00 -0.6524635E-15
-0.8435100E+00 -0.6654577E-15
-0.8430000E+00 -0.6787072E-15
-0.8424900E+00 -0.6922168E-15
-0.8419800E+00 -0.7059915E-15
-0.8414700E+00 -0.7200366E-15
-0.8409600E+00 -0.7343572E-15
-0.8404500E+00 -0.7489587E-15
-0.8399400E+00 -0.7638464E-15
-0.8394300E+00 -0.7790260E-15
-0.8389200E+00 -0.7945030E-15
-0.8384100E+00 -0.8102833E-15
-0.8379000E+00 -0.8263726E-15
-0.8373900E+00 -0.8427770E-15
-0.8368800E+00 -0.8595025E-15
-0.8363700E+00 -0.8765554E-15
-0.8358600E+00 -0.8939418E-15
-0.8353500E+00 -0.9116684E-15
-0.8348400E+00 -0.9297416E-15
-0.8343300E+00 -0.9481680E-15
-0.8338200E+00 -0.9669547E-15
-0.8333100E+00 -0.9861083E-15
-0.8328000E+00 -0.1005636E-14
-0.8322900E+00 -0.1025545E-14
-0.8317800E+00 -0.1045843E-14
-0.8312700E+00 -0.1066537E-14
-0.8307600E+00 -0.1087634E-14
-0.8302500E+00 -0.1109143E-14
-0.8297400E+00 -0.1131072E-14
-0.8292300E+00 -0.1153428E-14
-0.8287200E+00 -0.1176219E-14
-0.8282100E+00 -0.1199455E-14
-0.8277000E+00 -0.1223143E-14
-0.8271900E+00 -0.1247292E-14
-0.8266800E+00 -0.1271911E-14
-0.8261700E+00 -0.1297010E-14
-0.8256600E+00 -0.1322597E-14
-0.8251500E+00 -0.1348681E-14
-0.8246400E+00 -0.1375273E-14
-0.8241300E+00 -0.1402381E-14
-0.8236200E+00 -0.1430017E-14
-0.8231100E+00 -0.1458189E-14
-0.8226000E+00 -0.1486908E-14
-0.8220900E+00 -0.1516185E-14
-0.8215800E+00 -0.1546030E-14
-0.8210700E+00 -0.1576455E-14
-0.8205600E+00 -0.1607470E-14
-0.8200500E+00 -0.1639086E-14
-0.8195400E+00 -0.1671316E-14
-0.8190300E+00 -0.1704170E-14
-0.8185200E+00 -0.1737660E-14
-0.8180100E+00 -0.1771800E-14
-0.8175000E+00 -0.1806601E-14
-0.8169900E+00 -0.1842075E-14
-0.8164800E+00 -0.1878237E-14
-0.8159700E+00 -0.1915098E-14
-0.8154600E+00 -0.1952672E-14
-0.8149500E+00 -0.1990973E-14
-0.8144400E+00 -0.2030015E-14
-0.8139300E+00 -0.2069811E-14
-0.8134200E+00 -0.2110377E-14
-0.8129100E+00 -0.2151726E-14
-0.8124000E+00 -0.2193874E-14
-0.8118900E+00 -0.2236835E-14
-0.8113800E+00 -0.2280626E-14
-0.8108700E+00 -0.2325262E-14
-0.8103600E+00 -0.2370759E-14
-0.8098500E+00 -0.2417133E-14
-0.8093400E+00 -0.2464402E-14
-0.8088300E+00 -0.2512581E-14
-0.8083200E+00 -0.2561689E-14
-0.8078100E+00 -0.2611744E-14
-0.8073000E+00 -0.2662762E-14
-0.8067900E+00 -0.2714762E-14
-0.8062800E+00 -0.2767764E-14
-0.8057700E+00 -0.2821785E-14
-0.8052600E+00 -0.2876845E-14
-0.8047500E+00 -0.2932965E-14
-0.8042400E+00 -0.2990163E-14
-0.8037300E+00 -0.3048461E-14
-0.8032200E+00 -0.3107879E-14
-0.8027100E+00 -0.3168438E-14
-0.8022000E+00 -0.3230160E-14
-0.8016900E+00 -0.3293067E-14
-0.8011800E+00 -0.3357182E-14
-0.8006700E+00 -0.3422527E-14
-0.8001600E+00 -0.3489125E-14
-0.7996500E+00 -0.3557001E-14
-0.7991400E+00 -0.3626177E-14
-0.7986300E+00 -0.3696680E-14
-0.7981200E+00 -0.3768533E-14
-0.7976100E+00 -0.3841762E-14
-0.7971000E+00 -0.3916394E-14
-0.7965900E+00 -0.3992454E-14
-0.7960800E+00 -0.4069970E-14
-0.7955700E+00 -0.4148970E-14
-0.7950600E+00 -0.4229480E-14
-0.7945500E+00 -0.4311530E-14
-0.7940400E+00 -0.4395149E-14
-0.7935300E+00 -0.4480366E-14
-0.7930200E+00 -0.4567211E-14
-0.7925100E+00 -0.4655714E-14
-0.7920000E+00 -0.4745908E-14
-0.7914900E+00 -0.4837824E-14
-0.7909800E+00 -0.4931493E-14
-0.7904700E+00 -0.5026950E-14
-0.7899600E+00 -0.5124227E-14
-0.7894500E+00 -0.5223360E-14
-0.7889400E+00 -0.5324382E-14
-0.7884300E+00 -0.5427329E-14
-0.7879200E+00 -0.5532238E-14
-0.7874100E+00 -0.5639144E-14
-0.7869000E+00 -0.5748087E-14
-0.7863900E+00 -0.5859103E-14
-0.7858800E+00 -0.5972232E-14
-0.7853700E+00 -0.6087513E-14
-0.7848600E+00 -0.6204986E-14
-0.7843500E+00 -0.6324694E-14
-0.7838400E+00 -0.6446677E-14
-0.7833300E+00 -0.6570978E-14
-0.7828200E+00 -0.6697640E-14
-0.7823100E+00 -0.6826708E-14
-0.7818000E+00 -0.6958226E-14
-0.7812900E+00 -0.7092241E-14
-0.7807800E+00 -0.7228799E-14
-0.7802700E+00 -0.7367948E-14
-0.7797600E+00 -0.7509736E-14
-0.7792500E+00 -0.7654212E-14
-0.7787400E+00 -0.7801426E-14
-0.7782300E+00 -0.7951429E-14
-0.7777200E+00 -0.8104274E-14
-0.7772100E+00 -0.8260013E-14
-0.7767000E+00 -0.8418700E-14
-0.7761900E+00 -0.8580390E-14
-0.7756800E+00 -0.8745140E-14
-0.7751700E+00 -0.8913006E-14
-0.7746600E+00 -0.9084046E-14
-0.7741500E+00 -0.9258320E-14
-0.7736400E+00 -0.9435887E-14
-0.7731300E+00 -0.9616809E-14
-0.7726200E+00 -0.9801149E-14
-0.7721100E+00 -0.9988969E-14
-0.7716000E+00 -0.1018033E-13
-0.7710900E+00 -0.1037531E-13
-0.7705800E+00 -0.1057397E-13
-0.7700700E+00 -0.1077637E-13
-0.7695600E+00 -0.1098259E-13
-0.7690500E+00 -0.1119269E-13
-0.7685400E+00 -0.1140675E-13
-0.7680300E+00 -0.1162485E-13
-0.7675200E+00 -0.1184705E-13
-0.7670100E+00 -0.1207344E-13
-0.7665000E+00 -0.1230409E-13
-0.7659900E+00 -0.1253908E-13
-0.7654800E+00 -0.1277848E-13
-0.7649700E+00 -0.1302240E-13
-0.7644600E+00 -0.1327089E-13
-0.7639500E+00 -0.1352406E-13
-0.7634400E+00 -0.1378198E-13
-0.7629300E+00 -0.1404475E-13
-0.7624200E+00 -0.1431246E-13
-0.7619100E+00 -0.1458519E-13
-0.7614000E+00 -0.1486303E-13
-0.7608900E+00 -0.1514610E-13
-0.7603800E+00 -0.1543447E-13
-0.7598700E+00 -0.1572824E-13
-0.7593600E+00 -0.1602753E-13
-0.7588500E+00 -0.1633242E-13
-0.7583400E+00 -0.1664303E-13
-0.7578300E+00 -0.1695945E-13
-0.7573200E+00 -0.1728180E-13
-0.7568100E+00 -0.1761018E-13
-0.7563000E+00 -0.1794470E-13
-0.7557900E+00 -0.1828549E-13
-0.7552800E+00 -0.1863265E-13
-0.7547700E+00 -0.1898630E-13
-0.7542600E+00 -0.1934656E-13
-0.7537500E+00 -0.1971355E-13
-0.7532400E+00 -0.2008740E-13
-0.7527300E+00 -0.2046823E-13
-0.7522200E+00 -0.2085617E-13
-0.7517100E+00 -0.2125135E-13
-0.7512000E+00 -0.2165390E-13
-0.7506900E+00 -0.2206396E-13
-0.7501800E+00 -0.2248167E-13
-0.7496700E+00 -0.2290717E-13
-0.7491600E+00 -0.2334059E-13
-0.7486500E+00 -0.2378209E-13
-0.7481400E+00 -0.2423182E-13
-0.7476300E+00 -0.2468992E-13
-0.7471200E+00 -0.2515654E-13
-0.7466100E+00 -0.2563185E-13
-0.7461000E+00 -0.2611601E-13
-0.7455900E+00 -0.2660916E-13
-0.7450800E+00 -0.2711149E-13
-0.7445700E+00 -0.2762315E-13
-0.7440600E+00 -0.2814432E-13
-0.7435500E+00 -0.2867517E-13
-0.7430400E+00 -0.2921588E-13
-0.7425300E+00 -0.2976662E-13
-0.7420200E+00 -0.3032759E-13
-0.7415100E+00 -0.3089898E-13
-0.7410000E+00 -0.3148096E-13
-0.7404900E+00 -0.3207373E-13
-0.7399800E+00 -0.3267748E-13
-0.7394700E+00 -0.3329243E-13
-0.7389600E+00 -0.3391877E-13
-0.7384500E+00 -0.3455671E-13
-0.7379400E+00 -0.3520647E-13
-0.7374300E+00 -0.3586825E-13
-0.7369200E+00 -0.3654227E-13
-0.7364100E+00 -0.3722876E-13
-0.7359000E+00 -0.3792795E-13
-0.7353900E+00 -0.3864007E-13
-0.7348800E+00 -0.3936535E-13
-0.7343700E+00 -0.4010403E-13
-0.7338600E+00 -0.4085636E-13
-0.7333500E+00 -0.4162258E-13
-0.7328400E+00 -0.4240294E-13
-0.7323300E+00 -0.4319771E-13
-0.7318200E+00 -0.4400715E-13
-0.7313100E+00 -0.4483151E-13
-0.7308000E+00 -0.4567108E-13
-0.7302900E+00 -0.4652612E-13
-0.7297800E+00 -0.4739692E-13
-0.7292700E+00 -0.4828377E-13
-0.7287600E+00 -0.4918695E-13
-0.7282500E+00 -0.5010676E-13
-0.7277400E+00 -0.5104350E-13
-0.7272300E+00 -0.5199748E-13
-0.7267200E+00 -0.5296901E-13
-0.7262100E+00 -0.5395840E-13
-0.7257000E+00 -0.5496598E-13
-0.7251900E+00 -0.5599209E-13
-0.7246800E+00 -0.5703704E-13
-0.7241700E+00 -0.5810120E-13
-0.7236600E+00 -0.5918488E-13
-0.7231500E+00 -0.6028846E-13
-0.7226400E+00 -0.6141230E-13
-0.7221300E+00 -0.6255675E-13
-0.7216200E+00 -0.6372219E-13
-0.7211100E+00 -0.6490900E-13
-0.7206000E+00 -0.6611757E-13
-0.7200900E+00 -0.6734828E-13
-0.7195800E+00 -0.6860154E-13
-0.7190700E+00 -0.6987775E-13
-0.7185600E+00 -0.7117733E-13
-0.7180500E+00 -0.7250069E-13
-0.7175400E+00 -0.7384828E-13
-0.7170300E+00 -0.7522051E-13
-0.7165200E+00 -0.7661784E-13
-0.7160100E+00 -0.7804071E-13
-0.7155000E+00 -0.7948959E-13
-0.7149900E+00 -0.8096494E-13
-0.7144800E+00 -0.8246724E-13
-0.7139700E+00 -0.8399696E-13
-0.7134600E+00 -0.8555461E-13
-0.7129500E+00 -0.8714068E-13
-0.7124400E+00 -0.8875569E-13
-0.7119300E+00 -0.9040015E-13
-0.7114200E+00 -0.9207458E-13
-0.7109100E+00 -0.9377954E-13
-0.7104000E+00 -0.9551556E-13
-0.7098900E+00 -0.9728320E-13
-0.7093800E+00 -0.9908303E-13
-0.7088700E+00 -0.1009156E-12
-0.7083600E+00 -0.1027816E-12
-0.7078500E+00 -0.1046815E-12
-0.7073400E+00 -0.1066159E-12
-0.7068300E+00 -0.1085856E-12
-0.7063200E+00 -0.1105910E-12
-0.7058100E+00 -0.1126329E-12
-0.7053000E+00 -0.1147118E-12
-0.7047900E+00 -0.1168286E-12
-0.7042800E+00 -0.1189837E-12
-0.7037700E+00 -0.1211780E-12
-0.7032600E+00 -0.1234121E-12
-0.7027500E+00 -0.1256867E-12
-0.7022400E+00 -0.1280025E-12
-0.7017300E+00 -0.1303603E-12
-0.7012200E+00 -0.1327609E-12
-0.7007100E+00 -0.1352050E-12
-0.7002000E+00 -0.1376933E-12
-0.6996900E+00 -0.1402266E-12
-0.6991800E+00 -0.1428059E-12
-0.6986700E+00 -0.1454317E-12
-0.6981600E+00 -0.1481051E-12
-0.6976500E+00 -0.1508268E-12
-0.6971400E+00 -0.1535978E-12
-0.6966300E+00 -0.1564188E-12
-0.6961200E+00 -0.1592908E-12
-0.6956100E+00 -0.1622146E-12
-0.6951000E+00 -0.1651913E-12
-0.6945900E+00 -0.1682217E-12
-0.6940800E+00 -0.1713068E-12
-0.6935700E+00 -0.1744475E-12
-0.6930600E+00 -0.1776449E-12
-0.6925500E+00 -0.1809000E-12
-0.6920400E+00 -0.1842137E-12
-0.6915300E+00 -0.1875871E-12
-0.6910200E+00 -0.1910213E-12
-0.6905100E+00 -0.1945173E-12