-0.1200000E+01 -0.1173780E-36
-0.1199490E+01 -0.1208689E-36
-0.1198980E+01 -0.1243597E-36
-0.1198470E+01 -0.1278506E-36
-0.1197960E+01 -0.1313414E-36
-0.1197450E+01 -0.1348323E-36
-0.1196940E+01 -0.1383231E-36
-0.1196430E+01 -0.1418139E-36
-0.1195920E+01 -0.1453048E-36
-0.1195410E+01 -0.1487956E-36
-0.1194900E+01 -0.1522865E-36
-0.1194390E+01 -0.1557773E-36
-0.1193880E+01 -0.1592682E-36
-0.1193370E+01 -0.1627590E-36
-0.1192860E+01 -0.1662499E-36
-0.1192350E+01 -0.1697407E-36
-0.1191840E+01 -0.1732316E-36
-0.1191330E+01 -0.1767224E-36
-0.1190820E+01 -0.1802133E-36
-0.1190310E+01 -0.1837041E-36
-0.1189800E+01 -0.1871950E-36
-0.1189290E+01 -0.1906858E-36
-0.1188780E+01 -0.1941767E-36
-0.1188270E+01 -0.1976675E-36
-0.1187760E+01 -0.2011583E-36
-0.1187250E+01 -0.2046492E-36
-0.1186740E+01 -0.2081400E-36
-0.1186230E+01 -0.2116309E-36
-0.1185720E+01 -0.2151217E-36
-0.1185210E+01 -0.2186126E-36
-0.1184700E+01 -0.2217097E-36
-0.1184190E+01 -0.2241781E-36
-0.1183680E+01 -0.2259542E-36
-0.1183170E+01 -0.2271447E-36
-0.1182660E+01 -0.2276937E-36
-0.1182150E+01 -0.2275514E-36
-0.1181640E+01 -0.2276617E-36
-0.1181130E+01 -0.2280726E-36
-0.1180620E+01 -0.2288427E-36
-0.1180110E+01 -0.2300411E-36
-0.1179600E+01 -0.2317440E-36
-0.1179090E+01 -0.2340335E-36
-0.1178580E+01 -0.2369963E-36
-0.1178070E+01 -0.2407215E-36
-0.1177560E+01 -0.2452991E-36
-0.1177050E+01 -0.2508176E-36
-0.1176540E+01 -0.2576335E-36
-0.1176030E+01 -0.2657484E-36
-0.1175520E+01 -0.2751649E-36
-0.1175010E+01 -0.2858852E-36
-0.1174500E+01 -0.2979116E-36
-0.1173990E+01 -0.3112461E-36
-0.1173480E+01 -0.3240189E-36
-0.1172970E+01 -0.3361179E-36
-0.1172460E+01 -0.3474531E-36
-0.1171950E+01 -0.3579574E-36
-0.1171440E+01 -0.3675865E-36
-0.1170930E+01 -0.3763083E-36
-0.1170420E+01 -0.3803685E-36
-0.1169910E+01 -0.3793258E-36
-0.1169400E+01 -0.3730040E-36
-0.1168890E+01 -0.3613328E-36
-0.1168380E+01 -0.3479392E-36
-0.1167870E+01 -0.3327861E-36
-0.1167360E+01 -0.3158455E-36
-0.1166850E+01 -0.2970990E-36
-0.1166340E+01 -0.2765388E-36
-0.1165830E+01 -0.2611017E-36
-0.1165320E+01 -0.2514898E-36
-0.1164810E+01 -0.2484227E-36
-0.1164300E+01 -0.2521793E-36
-0.1163790E+01 -0.2628105E-36
-0.1163280E+01 -0.2838023E-36
-0.1162770E+01 -0.3128127E-36
-0.1162260E+01 -0.3495779E-36
-0.1161750E+01 -0.3935030E-36
-0.1161240E+01 -0.4407009E-36
-0.1160730E+01 -0.4928449E-36
-0.1160220E+01 -0.5479273E-36
-0.1159710E+01 -0.6014672E-36
-0.1159200E+01 -0.6534530E-36
-0.1158690E+01 -0.7038681E-36
-0.1158180E+01 -0.7549087E-36
-0.1157670E+01 -0.8049132E-36
-0.1157160E+01 -0.8534486E-36
-0.1156650E+01 -0.9005476E-36
-0.1156140E+01 -0.9462270E-36
-0.1155630E+01 -0.9904850E-36
-0.1155120E+01 -0.1031397E-35
-0.1154610E+01 -0.1068827E-35
-0.1154100E+01 -0.1101558E-35
-0.1153590E+01 -0.1129598E-35
-0.1153080E+01 -0.1152838E-35
-0.1152570E+01 -0.1171977E-35
-0.1152060E+01 -0.1186908E-35
-0.1151550E+01 -0.1197551E-35
-0.1151040E+01 -0.1208365E-35
-0.1150530E+01 -0.1221031E-35
-0.1150020E+01 -0.1237988E-35
-0.1149510E+01 -0.1263630E-35
-0.1149000E+01 -0.1298612E-35
-0.1148490E+01 -0.1343675E-35
-0.1147980E+01 -0.1398169E-35
-0.1147470E+01 -0.1458241E-35
-0.1146960E+01 -0.1524192E-35
-0.1146450E+01 -0.1598610E-35
-0.1145940E+01 -0.1681753E-35
-0.1145430E+01 -0.1773722E-35
-0.1144920E+01 -0.1874454E-35
-0.1144410E+01 -0.1981650E-35
-0.1143900E+01 -0.2095229E-35
-0.1143390E+01 -0.2215060E-35
-0.1142880E+01 -0.2340968E-35
-0.1142370E+01 -0.2472737E-35
-0.1141860E+01 -0.2606444E-35
-0.1141350E+01 -0.2741593E-35
-0.1140840E+01 -0.2880217E-35
-0.1140330E+01 -0.3022771E-35
-0.1139820E+01 -0.3169813E-35
-0.1139310E+01 -0.3324723E-35
-0.1138800E+01 -0.3487441E-35
-0.1138290E+01 -0.3655437E-35
-0.1137780E+01 -0.3828235E-35
-0.1137270E+01 -0.4005342E-35
-0.1136760E+01 -0.4186244E-35
-0.1136250E+01 -0.4372597E-35
-0.1135740E+01 -0.4561793E-35
-0.1135230E+01 -0.4750525E-35
-0.1134720E+01 -0.4938297E-35
-0.1134210E+01 -0.5124765E-35
-0.1133700E+01 -0.5315152E-35
-0.1133190E+01 -0.5510464E-35
-0.1132680E+01 -0.5711597E-35
-0.1132170E+01 -0.5919273E-35
-0.1131660E+01 -0.6133717E-35
-0.1131150E+01 -0.6354857E-35
-0.1130640E+01 -0.6581199E-35
-0.1130130E+01 -0.6811803E-35
-0.1129620E+01 -0.7045963E-35
-0.1129110E+01 -0.7283003E-35
-0.1128600E+01 -0.7522328E-35
-0.1128090E+01 -0.7758286E-35
-0.1127580E+01 -0.7990525E-35
-0.1127070E+01 -0.8221240E-35
-0.1126560E+01 -0.8452986E-35
-0.1126050E+01 -0.8686124E-35
-0.1125540E+01 -0.8925170E-35
-0.1125030E+01 -0.9171452E-35
-0.1124520E+01 -0.9426338E-35
-0.1124010E+01 -0.9691159E-35
-0.1123500E+01 -0.9967100E-35
-0.1122990E+01 -0.1025516E-34
-0.1122480E+01 -0.1055610E-34
-0.1121970E+01 -0.1087045E-34
-0.1121460E+01 -0.1119933E-34
-0.1120950E+01 -0.1154400E-34
-0.1120440E+01 -0.1190529E-34
-0.1119930E+01 -0.1228320E-34
-0.1119420E+01 -0.1267653E-34
-0.1118910E+01 -0.1308374E-34
-0.1118400E+01 -0.1350076E-34
-0.1117890E+01 -0.1392717E-34
-0.1117380E+01 -0.1436257E-34
-0.1116870E+01 -0.1480882E-34
-0.1116360E+01 -0.1526783E-34
-0.1115850E+01 -0.1573988E-34
-0.1115340E+01 -0.1622361E-34
-0.1114830E+01 -0.1671945E-34
-0.1114320E+01 -0.1722795E-34
-0.1113810E+01 -0.1774972E-34
-0.1113300E+01 -0.1828535E-34
-0.1112790E+01 -0.1883341E-34
-0.1112280E+01 -0.1939629E-34
-0.1111770E+01 -0.1997458E-34
-0.1111260E+01 -0.2056880E-34
-0.1110750E+01 -0.2117740E-34
-0.1110240E+01 -0.2180602E-34
-0.1109730E+01 -0.2245581E-34
-0.1109220E+01 -0.2312787E-34
-0.1108710E+01 -0.2382316E-34
-0.1108200E+01 -0.2454249E-34
-0.1107690E+01 -0.2528443E-34
-0.1107180E+01 -0.2604904E-34
-0.1106670E+01 -0.2683623E-34
-0.1106160E+01 -0.2764594E-34
-0.1105650E+01 -0.2847812E-34
-0.1105140E+01 -0.2933281E-34
-0.1104630E+01 -0.3021019E-34
-0.1104120E+01 -0.3111061E-34
-0.1103610E+01 -0.3203463E-34
-0.1103100E+01 -0.3298307E-34
-0.1102590E+01 -0.3395700E-34
-0.1102080E+01 -0.3495775E-34
-0.1101570E+01 -0.3598683E-34
-0.1101060E+01 -0.3704593E-34
-0.1100550E+01 -0.3813679E-34
-0.1100040E+01 -0.3926123E-34
-0.1099530E+01 -0.4042260E-34
-0.1099020E+01 -0.4162198E-34
-0.1098510E+01 -0.4286029E-34
-0.1098000E+01 -0.4413830E-34
-0.1097490E+01 -0.4545662E-34
-0.1096980E+01 -0.4681575E-34
-0.1096470E+01 -0.4821760E-34
-0.1095960E+01 -0.4965951E-34
-0.1095450E+01 -0.5114242E-34
-0.1094940E+01 -0.5266735E-34
-0.1094430E+01 -0.5423538E-34
-0.1093920E+01 -0.5584768E-34
-0.1093410E+01 -0.5750555E-34
-0.1092900E+01 -0.5921030E-34
-0.1092390E+01 -0.6096341E-34
-0.1091880E+01 -0.6276456E-34
-0.1091370E+01 -0.6461467E-34
-0.1090860E+01 -0.6651474E-34
-0.1090350E+01 -0.6846775E-34
-0.1089840E+01 -0.7047524E-34
-0.1089330E+01 -0.7253883E-34
-0.1088820E+01 -0.7466026E-34
-0.1088310E+01 -0.7684572E-34
-0.1087800E+01 -0.7909854E-34
-0.1087290E+01 -0.8142070E-34
-0.1086780E+01 -0.8381598E-34
-0.1086270E+01 -0.8628815E-34
-0.1085760E+01 -0.8884080E-34
-0.1085250E+01 -0.9147532E-34
-0.1084740E+01 -0.9419361E-34
-0.1084230E+01 -0.9699876E-34
-0.1083720E+01 -0.9989098E-34
-0.1083210E+01 -0.1028703E-33
-0.1082700E+01 -0.1059366E-33
-0.1082190E+01 -0.1090901E-33
-0.1081680E+01 -0.1123328E-33
-0.1081170E+01 -0.1156656E-33
-0.1080660E+01 -0.1190874E-33
-0.1080150E+01 -0.1225994E-33
-0.1079640E+01 -0.1262050E-33
-0.1079130E+01 -0.1299079E-33
-0.1078620E+01 -0.1337125E-33
-0.1078110E+01 -0.1376229E-33
-0.1077600E+01 -0.1416441E-33
-0.1077090E+01 -0.1457786E-33
-0.1076580E+01 -0.1500306E-33
-0.1076070E+01 -0.1544089E-33
-0.1075560E+01 -0.1589203E-33
-0.1075050E+01 -0.1635693E-33
-0.1074540E+01 -0.1683601E-33
-0.1074030E+01 -0.1732966E-33
-0.1073520E+01 -0.1783830E-33
-0.1073010E+01 -0.1836231E-33
-0.1072500E+01 -0.1890221E-33
-0.1071990E+01 -0.1945821E-33
-0.1071480E+01 -0.2003064E-33
-0.1070970E+01 -0.2061985E-33
-0.1070460E+01 -0.2122619E-33
-0.1069950E+01 -0.2184976E-33
-0.1069440E+01 -0.2249103E-33
-0.1068930E+01 -0.2315048E-33
-0.1068420E+01 -0.2382864E-33
-0.1067910E+01 -0.2452602E-33
-0.1067400E+01 -0.2524320E-33
-0.1066890E+01 -0.2598079E-33
-0.1066380E+01 -0.2673925E-33
-0.1065870E+01 -0.2751960E-33
-0.1065360E+01 -0.2832264E-33
-0.1064850E+01 -0.2914935E-33
-0.1064340E+01 -0.3000051E-33
-0.1063830E+01 -0.3087690E-33
-0.1063320E+01 -0.3177928E-33
-0.1062810E+01 -0.3270840E-33
-0.1062300E+01 -0.3366523E-33
-0.1061790E+01 -0.3465056E-33
-0.1061280E+01 -0.3566517E-33
-0.1060770E+01 -0.3670981E-33
-0.1060260E+01 -0.3778520E-33
-0.1059750E+01 -0.3889205E-33
-0.1059240E+01 -0.4003074E-33
-0.1058730E+01 -0.4120217E-33
-0.1058220E+01 -0.4240723E-33
-0.1057710E+01 -0.4364684E-33
-0.1057200E+01 -0.4492197E-33
-0.1056690E+01 -0.4623314E-33
-0.1056180E+01 -0.4758146E-33
-0.1055670E+01 -0.4896789E-33
-0.1055160E+01 -0.5039351E-33
-0.1054650E+01 -0.5185962E-33
-0.1054140E+01 -0.5336738E-33
-0.1053630E+01 -0.5491830E-33
-0.1053120E+01 -0.5651380E-33
-0.1052610E+01 -0.5815521E-33
-0.1052100E+01 -0.5984392E-33
-0.1051590E+01 -0.6158168E-33
-0.1051080E+01 -0.6337015E-33
-0.1050570E+01 -0.6521099E-33
-0.1050060E+01 -0.6710586E-33
-0.1049550E+01 -0.6905633E-33
-0.1049040E+01 -0.7106421E-33
-0.1048530E+01 -0.7313120E-33
-0.1048020E+01 -0.7525893E-33
-0.1047510E+01 -0.7744907E-33
-0.1047000E+01 -0.7970325E-33
-0.1046490E+01 -0.8202312E-33
-0.1045980E+01 -0.8441016E-33
-0.1045470E+01 -0.8686619E-33
-0.1044960E+01 -0.8939280E-33
-0.1044450E+01 -0.9199199E-33
-0.1043940E+01 -0.9466581E-33
-0.1043430E+01 -0.9741587E-33
-0.1042920E+01 -0.1002442E-32
-0.1042410E+01 -0.1031529E-32
-0.1041900E+01 -0.1061442E-32
-0.1041390E+01 -0.1092206E-32
-0.1040880E+01 -0.1123845E-32
-0.1040370E+01 -0.1156387E-32
-0.1039860E+01 -0.1189857E-32
-0.1039350E+01 -0.1224285E-32
-0.1038840E+01 -0.1259703E-32
-0.1038330E+01 -0.1296143E-32
-0.1037820E+01 -0.1333637E-32
-0.1037310E+01 -0.1372214E-32
-0.1036800E+01 -0.1411907E-32
-0.1036290E+01 -0.1452747E-32
-0.1035780E+01 -0.1494769E-32
-0.1035270E+01 -0.1538009E-32
-0.1034760E+01 -0.1582501E-32
-0.1034250E+01 -0.1628282E-32
-0.1033740E+01 -0.1675384E-32
-0.1033230E+01 -0.1723845E-32
-0.1032720E+01 -0.1773701E-32
-0.1032210E+01 -0.1824990E-32
-0.1031700E+01 -0.1877755E-32
-0.1031190E+01 -0.1932033E-32
-0.1030680E+01 -0.1987864E-32
-0.1030170E+01 -0.2045290E-32
-0.1029660E+01 -0.2104354E-32
-0.1029150E+01 -0.2165101E-32
-0.1028640E+01 -0.2227581E-32
-0.1028130E+01 -0.2291843E-32
-0.1027620E+01 -0.2357941E-32
-0.1027110E+01 -0.2425925E-32
-0.1026600E+01 -0.2495853E-32
-0.1026090E+01 -0.2567780E-32
-0.1025580E+01 -0.2641768E-32
-0.1025070E+01 -0.2717876E-32
-0.1024560E+01 -0.2796168E-32
-0.1024050E+01 -0.2876707E-32
-0.1023540E+01 -0.2959560E-32
-0.1023030E+01 -0.3044793E-32
-0.1022520E+01 -0.3132474E-32
-0.1022010E+01 -0.3222673E-32
-0.1021500E+01 -0.3315459E-32
-0.1020990E+01 -0.3410906E-32
-0.1020480E+01 -0.3509086E-32
-0.1019970E+01 -0.3610076E-32
-0.1019460E+01 -0.3713951E-32
-0.1018950E+01 -0.3820791E-32
-0.1018440E+01 -0.3930679E-32
-0.1017930E+01 -0.4043698E-32
-0.1017420E+01 -0.4159935E-32
-0.1016910E+01 -0.4279481E-32
-0.1016400E+01 -0.4402430E-32
-0.1015890E+01 -0.4528877E-32
-0.1015380E+01 -0.4658924E-32
-0.1014870E+01 -0.4792674E-32
-0.1014360E+01 -0.4930233E-32
-0.1013850E+01 -0.5071713E-32
-0.1013340E+01 -0.5217227E-32
-0.1012830E+01 -0.5366893E-32
-0.1012320E+01 -0.5520831E-32
-0.1011810E+01 -0.5679163E-32
-0.1011300E+01 -0.5842014E-32
-0.1010790E+01 -0.6009513E-32
-0.1010280E+01 -0.6181793E-32
-0.1009770E+01 -0.6358988E-32
-0.1009260E+01 -0.6541236E-32
-0.1008750E+01 -0.6728677E-32
-0.1008240E+01 -0.6921455E-32
-0.1007730E+01 -0.7119719E-32
-0.1007220E+01 -0.7323621E-32
-0.1006710E+01 -0.7533318E-32
-0.1006200E+01 -0.7748970E-32
-0.1005690E+01 -0.7970743E-32
-0.1005180E+01 -0.8198809E-32
-0.1004670E+01 -0.8433343E-32
-0.1004160E+01 -0.8674530E-32
-0.1003650E+01 -0.8922558E-32
-0.1003140E+01 -0.9177620E-32
-0.1002630E+01 -0.9439917E-32
-0.1002120E+01 -0.9709655E-32
-0.1001610E+01 -0.9987051E-32
-0.1001100E+01 -0.1027232E-31
-0.1000590E+01 -0.1056569E-31
-0.1000080E+01 -0.1086739E-31
-0.9995700E+00 -0.1117766E-31
-0.9990600E+00 -0.1149674E-31
-0.9985500E+00 -0.1182488E-31
-0.9980400E+00 -0.1216233E-31
-0.9975300E+00 -0.1250937E-31
-0.9970200E+00 -0.1286626E-31
-0.9965100E+00 -0.1323326E-31
-0.9960000E+00 -0.1361068E-31
-0.9954900E+00 -0.1399878E-31
-0.9949800E+00 -0.1439788E-31
-0.9944700E+00 -0.1480828E-31
-0.9939600E+00 -0.1523029E-31
-0.9934500E+00 -0.1566424E-31
-0.9929400E+00 -0.1611045E-31
-0.9924300E+00 -0.1656928E-31
-0.9919200E+00 -0.1704107E-31
-0.9914100E+00 -0.1752619E-31
-0.9909000E+00 -0.1802501E-31
-0.9903900E+00 -0.1853793E-31
-0.9898800E+00 -0.1906533E-31
-0.9893700E+00 -0.1960763E-31
-0.9888600E+00 -0.2016525E-31
-0.9883500E+00 -0.2073862E-31
-0.9878400E+00 -0.2132818E-31
-0.9873300E+00 -0.2193439E-31
-0.9868200E+00 -0.2255772E-31
-0.9863100E+00 -0.2319865E-31
-0.9858000E+00 -0.2385768E-31
-0.9852900E+00 -0.2453531E-31
-0.9847800E+00 -0.2523206E-31
-0.9842700E+00 -0.2594847E-31
-0.9837600E+00 -0.2668509E-31
-0.9832500E+00 -0.2744248E-31
-0.9827400E+00 -0.2822123E-31
-0.9822300E+00 -0.2902192E-31
-0.9817200E+00 -0.2984518E-31
-0.9812100E+00 -0.3069162E-31
-0.9807000E+00 -0.3156190E-31
-0.9801900E+00 -0.3245669E-31
-0.9796800E+00 -0.3337667E-31
-0.9791700E+00 -0.3432254E-31
-0.9786600E+00 -0.3529503E-31
-0.9781500E+00 -0.3629488E-31
-0.9776400E+00 -0.3732286E-31
-0.9771300E+00 -0.3837976E-31
-0.9766200E+00 -0.3946638E-31
-0.9761100E+00 -0.4058355E-31
-0.9756000E+00 -0.4173214E-31
-0.9750900E+00 -0.4291302E-31
-0.9745800E+00 -0.4412708E-31
-0.9740700E+00 -0.4537526E-31
-0.9735600E+00 -0.4665851E-31
-0.9730500E+00 -0.4797781E-31
-0.9725400E+00 -0.4933415E-31
-0.9720300E+00 -0.5072858E-31
-0.9715200E+00 -0.5216214E-31
-0.9710100E+00 -0.5363593E-31
-0.9705000E+00 -0.5515108E-31
-0.9699900E+00 -0.5670873E-31
-0.9694800E+00 -0.5831006E-31
-0.9689700E+00 -0.5995629E-31
-0.9684600E+00 -0.6164867E-31
-0.9679500E+00 -0.6338849E-31
-0.9674400E+00 -0.6517707E-31
-0.9669300E+00 -0.6701576E-31
-0.9664200E+00 -0.6890596E-31
-0.9659100E+00 -0.7084910E-31
-0.9654000E+00 -0.7284667E-31
-0.9648900E+00 -0.7490016E-31
-0.9643800E+00 -0.7701115E-31
-0.9638700E+00 -0.7918122E-31
-0.9633600E+00 -0.8141203E-31
-0.9628500E+00 -0.8370525E-31
-0.9623400E+00 -0.8606263E-31
-0.9618300E+00 -0.8848594E-31
-0.9613200E+00 -0.9097702E-31
-0.9608100E+00 -0.9353773E-31
-0.9603000E+00 -0.9617002E-31
-0.9597900E+00 -0.9887587E-31
-0.9592800E+00 -0.1016573E-30
-0.9587700E+00 -0.1045165E-30
-0.9582600E+00 -0.1074555E-30
-0.9577500E+00 -0.1104766E-30
-0.9572400E+00 -0.1135820E-30
-0.9567300E+00 -0.1167741E-30
-0.9562200E+00 -0.1200553E-30
-0.9557100E+00 -0.1234280E-30
-0.9552000E+00 -0.1268948E-30
-0.9546900E+00 -0.1304583E-30
-0.9541800E+00 -0.1341212E-30
-0.9536700E+00 -0.1378863E-30
-0.9531600E+00 -0.1417562E-30
-0.9526500E+00 -0.1457341E-30
-0.9521400E+00 -0.1498228E-30
-0.9516300E+00 -0.1540254E-30
-0.9511200E+00 -0.1583450E-30
-0.9506100E+00 -0.1627850E-30
-0.9501000E+00 -0.1673486E-30
-0.9495900E+00 -0.1720393E-30
-0.9490800E+00 -0.1768604E-30
-0.9485700E+00 -0.1818158E-30
-0.9480600E+00 -0.1869090E-30
-0.9475500E+00 -0.1921440E-30
-0.9470400E+00 -0.1975245E-30
-0.9465300E+00 -0.2030546E-30
-0.9460200E+00 -0.2087384E-30
-0.9455100E+00 -0.2145802E-30
-0.9450000E+00 -0.2205844E-30
-0.9444900E+00 -0.2267554E-30
-0.9439800E+00 -0.2330978E-30
-0.9434700E+00 -0.2396164E-30
-0.9429600E+00 -0.2463160E-30
-0.9424500E+00 -0.2532016E-30
-0.9419400E+00 -0.2602784E-30
-0.9414300E+00 -0.2675516E-30
-0.9409200E+00 -0.2750265E-30
-0.9404100E+00 -0.2827089E-30
-0.9399000E+00 -0.2906043E-30
-0.9393900E+00 -0.2987187E-30
-0.9388800E+00 -0.3070580E-30
-0.9383700E+00 -0.3156285E-30
-0.9378600E+00 -0.3244366E-30
-0.9373500E+00 -0.3334886E-30
-0.9368400E+00 -0.3427915E-30
-0.9363300E+00 -0.3523520E-30
-0.9358200E+00 -0.3621772E-30
-0.9353100E+00 -0.3722745E-30
-0.9348000E+00 -0.3826513E-30
-0.9342900E+00 -0.3933153E-30
-0.9337800E+00 -0.4042743E-30
-0.9332700E+00 -0.4155365E-30
-0.9327600E+00 -0.4271102E-30
-0.9322500E+00 -0.4390040E-30
-0.9317400E+00 -0.4512267E-30
-0.9312300E+00 -0.4637873E-30
-0.9307200E+00 -0.4766950E-30
-0.9302100E+00 -0.4899595E-30
-0.9297000E+00 -0.5035904E-30
-0.9291900E+00 -0.5175979E-30
-0.9286800E+00 -0.5319923E-30
-0.9281700E+00 -0.5467841E-30
-0.9276600E+00 -0.5619842E-30
-0.9271500E+00 -0.5776040E-30
-0.9266400E+00 -0.5936547E-30
-0.9261300E+00 -0.6101483E-30
-0.9256200E+00 -0.6270969E-30
-0.9251100E+00 -0.6445130E-30
-0.9246000E+00 -0.6624092E-30
-0.9240900E+00 -0.6807988E-30
-0.9235800E+00 -0.6996953E-30
-0.9230700E+00 -0.7191126E-30
-0.9225600E+00 -0.7390649E-30
-0.9220500E+00 -0.7595668E-30
-0.9215400E+00 -0.7806333E-30
-0.9210300E+00 -0.8022801E-30
-0.9205200E+00 -0.8245227E-30
-0.9200100E+00 -0.8473776E-30
-0.9195000E+00 -0.8708615E-30
-0.9189900E+00 -0.8949916E-30
-0.9184800E+00 -0.9197856E-30
-0.9179700E+00 -0.9452616E-30
-0.9174600E+00 -0.9714381E-30
-0.9169500E+00 -0.9983344E-30
-0.9164400E+00 -0.1025970E-29
-0.9159300E+00 -0.1054365E-29
-0.9154200E+00 -0.1083541E-29
-0.9149100E+00 -0.1113517E-29
-0.9144000E+00 -0.1144318E-29
-0.9138900E+00 -0.1175964E-29
-0.9133800E+00 -0.1208479E-29
-0.9128700E+00 -0.1241886E-29
-0.9123600E+00 -0.1276211E-29
-0.9118500E+00 -0.1311477E-29
-0.9113400E+00 -0.1347711E-29
-0.9108300E+00 -0.1384938E-29
-0.9103200E+00 -0.1423187E-29
-0.9098100E+00 -0.1462484E-29
-0.9093000E+00 -0.1502859E-29
-0.9087900E+00 -0.1544340E-29
-0.9082800E+00 -0.1586957E-29
-0.9077700E+00 -0.1630742E-29
-0.9072600E+00 -0.1675727E-29
-0.9067500E+00 -0.1721943E-29
-0.9062400E+00 -0.1769426E-29
-0.9057300E+00 -0.1818207E-29
-0.9052200E+00 -0.1868325E-29
-0.9047100E+00 -0.1919813E-29
-0.9042000E+00 -0.1972710E-29
-0.9036900E+00 -0.2027054E-29
-0.9031800E+00 -0.2082885E-29
-0.9026700E+00 -0.2140242E-29
-0.9021600E+00 -0.2199167E-29
-0.9016500E+00 -0.2259703E-29
-0.9011400E+00 -0.2321893E-29
-0.9006300E+00 -0.2385782E-29
-0.9001200E+00 -0.2451416E-29
-0.8996100E+00 -0.2518843E-29
-0.8991000E+00 -0.2588111E-29
-0.8985900E+00 -0.2659270E-29
-0.8980800E+00 -0.2732371E-29
-0.8975700E+00 -0.2807466E-29
-0.8970600E+00 -0.2884611E-29
-0.8965500E+00 -0.2963860E-29
-0.8960400E+00 -0.3045270E-29
-0.8955300E+00 -0.3128901E-29
-0.8950200E+00 -0.3214810E-29
-0.8945100E+00 -0.3303062E-29
-0.8940000E+00 -0.3393718E-29
-0.8934900E+00 -0.3486845E-29
-0.8929800E+00 -0.3582508E-29
-0.8924700E+00 -0.3680777E-29
-0.8919600E+00 -0.3781722E-29
-0.8914500E+00 -0.3885415E-29
-0.8909400E+00 -0.3991930E-29
-0.8904300E+00 -0.4101344E-29
-0.8899200E+00 -0.4213735E-29
-0.8894100E+00 -0.4329184E-29
-0.8889000E+00 -0.4447772E-29
-0.8883900E+00 -0.4569585E-29
-0.8878800E+00 -0.4694710E-29
-0.8873700E+00 -0.4823236E-29
-0.8868600E+00 -0.4955255E-29
-0.8863500E+00 -0.5090861E-29
-0.8858400E+00 -0.5230152E-29
-0.8853300E+00 -0.5373225E-29
-0.8848200E+00 -0.5520184E-29
-0.8843100E+00 -0.5671132E-29
-0.8838000E+00 -0.5826178E-29
-0.8832900E+00 -0.5985432E-29
-0.8827800E+00 -0.6149007E-29
-0.8822700E+00 -0.6317020E-29
-0.8817600E+00 -0.6489589E-29
-0.8812500E+00 -0.6666839E-29
-0.8807400E+00 -0.6848894E-29
-0.8802300E+00 -0.7035883E-29
-0.8797200E+00 -0.7227941E-29
-0.8792100E+00 -0.7425202E-29
-0.8787000E+00 -0.7627807E-29
-0.8781900E+00 -0.7835900E-29
-0.8776800E+00 -0.8049627E-29
-0.8771700E+00 -0.8269141E-29
-0.8766600E+00 -0.8494598E-29
-0.8761500E+00 -0.8726155E-29
-0.8756400E+00 -0.8963979E-29
-0.8751300E+00 -0.9208237E-29
-0.8746200E+00 -0.9459100E-29
-0.8741100E+00 -0.9716748E-29
-0.8736000E+00 -0.9981362E-29
-0.8730900E+00 -0.1025313E-28
-0.8725800E+00 -0.1053224E-28
-0.8720700E+00 -0.1081889E-28
-0.8715600E+00 -0.1111329E-28
-0.8710500E+00 -0.1141564E-28
-0.8705400E+00 -0.1172615E-28
-0.8700300E+00 -0.1204504E-28
-0.8695200E+00 -0.1237255E-28
-0.8690100E+00 -0.1270889E-28
-0.8685000E+00 -0.1305430E-28
-0.8679900E+00 -0.1340903E-28
-0.8674800E+00 -0.1377333E-28
-0.8669700E+00 -0.1414745E-28
-0.8664600E+00 -0.1453166E-28
-0.8659500E+00 -0.1492622E-28
-0.8654400E+00 -0.1533141E-28
-0.8649300E+00 -0.1574753E-28
-0.8644200E+00 -0.1617485E-28
-0.8639100E+00 -0.1661368E-28
-0.8634000E+00 -0.1706432E-28
-0.8628900E+00 -0.1752710E-28
-0.8623800E+00 -0.1800234E-28
-0.8618700E+00 -0.1849037E-28
-0.8613600E+00 -0.1899152E-28
-0.8608500E+00 -0.1950616E-28
-0.8603400E+00 -0.2003464E-28
-0.8598300E+00 -0.2057734E-28
-0.8593200E+00 -0.2113462E-28
-0.8588100E+00 -0.2170688E-28
-0.8583000E+00 -0.2229453E-28
-0.8577900E+00 -0.2289796E-28
-0.8572800E+00 -0.2351760E-28
-0.8567700E+00 -0.2415389E-28
-0.8562600E+00 -0.2480727E-28
-0.8557500E+00 -0.2547819E-28
-0.8552400E+00 -0.2616712E-28
-0.8547300E+00 -0.2687454E-28
-0.8542200E+00 -0.2760094E-28
-0.8537100E+00 -0.2834684E-28
-0.8532000E+00 -0.2911274E-28
-0.8526900E+00 -0.2989917E-28
-0.8521800E+00 -0.3070670E-28
-0.8516700E+00 -0.3153588E-28
-0.8511600E+00 -0.3238727E-28
-0.8506500E+00 -0.3326148E-28
-0.8501400E+00 -0.3415911E-28
-0.8496300E+00 -0.3508078E-28
-0.8491200E+00 -0.3602713E-28
-0.8486100E+00 -0.3699882E-28
-0.8481000E+00 -0.3799652E-28
-0.8475900E+00 -0.3902091E-28
-0.8470800E+00 -0.4007272E-28
-0.8465700E+00 -0.4115266E-28
-0.8460600E+00 -0.4226149E-28
-0.8455500E+00 -0.4339997E-28
-0.8450400E+00 -0.4456888E-28
-0.8445300E+00 -0.4576904E-28
-0.8440200E+00 -0.4700127E-28
-0.8435100E+00 -0.4826643E-28
-0.8430000E+00 -0.4956538E-28
-0.8424900E+00 -0.5089903E-28
-0.8419800E+00 -0.5226829E-28
-0.8414700E+00 -0.5367410E-28
-0.8409600E+00 -0.5511744E-28
-0.8404500E+00 -0.5659929E-28
-0.8399400E+00 -0.5812068E-28
-0.8394300E+00 -0.5968264E-28
-0.8389200E+00 -0.6128626E-28
-0.8384100E+00 -0.6293264E-28
-0.8379000E+00 -0.6462290E-28
-0.8373900E+00 -0.6635821E-28
-0.8368800E+00 -0.6813975E-28
-0.8363700E+00 -0.6996875E-28
-0.8358600E+00 -0.7184647E-28
-0.8353500E+00 -0.7377418E-28
-0.8348400E+00 -0.7575321E-28
-0.8343300E+00 -0.7778492E-28
-0.8338200E+00 -0.7987069E-28
-0.8333100E+00 -0.8201196E-28
-0.8328000E+00 -0.8421019E-28
-0.8322900E+00 -0.8646688E-28
-0.8317800E+00 -0.8878358E-28
-0.8312700E+00 -0.9116187E-28
-0.8307600E+00 -0.9360337E-28
-0.8302500E+00 -0.9610977E-28
-0.8297400E+00 -0.9868276E-28
-0.8292300E+00 -0.1013241E-27
-0.8287200E+00 -0.1040356E-27
-0.8282100E+00 -0.1068192E-27
-0.8277000E+00 -0.1096766E-27
-0.8271900E+00 -0.1126099E-27
-0.8266800E+00 -0.1156210E-27
-0.8261700E+00 -0.1187121E-27
-0.8256600E+00 -0.1218852E-27
-0.8251500E+00 -0.1251424E-27
-0.8246400E+00 -0.1284861E-27
-0.8241300E+00 -0.1319184E-27
-0.8236200E+00 -0.1354417E-27
-0.8231100E+00 -0.1390585E-27
-0.8226000E+00 -0.1427711E-27
-0.8220900E+00 -0.1465821E-27
-0.8215800E+00 -0.1504940E-27
-0.8210700E+00 -0.1545096E-27
-0.8205600E+00 -0.1586315E-27
-0.8200500E+00 -0.1628625E-27
-0.8195400E+00 -0.1672056E-27
-0.8190300E+00 -0.1716635E-27
-0.8185200E+00 -0.1762394E-27
-0.8180100E+00 -0.1809364E-27
-0.8175000E+00 -0.1857576E-27
-0.8169900E+00 -0.1907062E-27
-0.8164800E+00 -0.1957856E-27
-0.8159700E+00 -0.2009993E-27
-0.8154600E+00 -0.2063507E-27
-0.8149500E+00 -0.2118435E-27
-0.8144400E+00 -0.2174814E-27
-0.8139300E+00 -0.2232681E-27
-0.8134200E+00 -0.2292075E-27
-0.8129100E+00 -0.2353038E-27
-0.8124000E+00 -0.2415609E-27
-0.8118900E+00 -0.2479831E-27
-0.8113800E+00 -0.2545746E-27
-0.8108700E+00 -0.2613400E-27
-0.8103600E+00 -0.2682838E-27
-0.8098500E+00 -0.2754106E-27
-0.8093400E+00 -0.2827253E-27
-0.8088300E+00 -0.2902327E-27
-0.8083200E+00 -0.2979379E-27
-0.8078100E+00 -0.3058461E-27
-0.8073000E+00 -0.3139625E-27
-0.8067900E+00 -0.3222926E-27
-0.8062800E+00 -0.3308419E-27
-0.8057700E+00 -0.3396163E-27
-0.8052600E+00 -0.3486215E-27
-0.8047500E+00 -0.3578636E-27
-0.8042400E+00 -0.3673487E-27
-0.8037300E+00 -0.3770833E-27
-0.8032200E+00 -0.3870737E-27
-0.8027100E+00 -0.3973266E-27
-0.8022000E+00 -0.4078490E-27
-0.8016900E+00 -0.4186478E-27
-0.8011800E+00 -0.4297301E-27
-0.8006700E+00 -0.4411035E-27
-0.8001600E+00 -0.4527755E-27
-0.7996500E+00 -0.4647538E-27
-0.7991400E+00 -0.4770464E-27
-0.7986300E+00 -0.4896616E-27
-0.7981200E+00 -0.5026077E-27
-0.7976100E+00 -0.5158934E-27
-0.7971000E+00 -0.5295275E-27
-0.7965900E+00 -0.5435191E-27
-0.7960800E+00 -0.5578775E-27
-0.7955700E+00 -0.5726123E-27
-0.7950600E+00 -0.5877333E-27
-0.7945500E+00 -0.6032506E-27
-0.7940400E+00 -0.6191744E-27
-0.7935300E+00 -0.6355154E-27
-0.7930200E+00 -0.6522845E-27
-0.7925100E+00 -0.6694928E-27
-0.7920000E+00 -0.6871517E-27
-0.7914900E+00 -0.7052729E-27
-0.7909800E+00 -0.7238685E-27
-0.7904700E+00 -0.7429507E-27
-0.7899600E+00 -0.7625323E-27
-0.7894500E+00 -0.7826262E-27
-0.7889400E+00 -0.8032457E-27
-0.7884300E+00 -0.8244043E-27
-0.7879200E+00 -0.8461162E-27
-0.7874100E+00 -0.8683956E-27
-0.7869000E+00 -0.8912570E-27
-0.7863900E+00 -0.9147157E-27
-0.7858800E+00 -0.9387870E-27
-0.7853700E+00 -0.9634869E-27
-0.7848600E+00 -0.9888315E-27
-0.7843500E+00 -0.1014837E-26
-0.7838400E+00 -0.1041522E-26
-0.7833300E+00 -0.1068902E-26
-0.7828200E+00 -0.1096996E-26
-0.7823100E+00 -0.1125823E-26
-0.7818000E+00 -0.1155400E-26
-0.7812900E+00 -0.1185749E-26
-0.7807800E+00 -0.1216887E-26
-0.7802700E+00 -0.1248837E-26
-0.7797600E+00 -0.1281619E-26
-0.7792500E+00 -0.1315253E-26
-0.7787400E+00 -0.1349763E-26
-0.7782300E+00 -0.1385171E-26
-0.7777200E+00 -0.1421500E-26
-0.7772100E+00 -0.1458774E-26
-0.7767000E+00 -0.1497017E-26
-0.7761900E+00 -0.1536255E-26
-0.7756800E+00 -0.1576512E-26
-0.7751700E+00 -0.1617816E-26
-0.7746600E+00 -0.1660193E-26
-0.7741500E+00 -0.1703671E-26
-0.7736400E+00 -0.1748278E-26
-0.7731300E+00 -0.1794044E-26
-0.7726200E+00 -0.1840998E-26
-0.7721100E+00 -0.1889171E-26
-0.7716000E+00 -0.1938594E-26
-0.7710900E+00 -0.1989300E-26
-0.7705800E+00 -0.2041322E-26
-0.7700700E+00 -0.2094693E-26
-0.7695600E+00 -0.2149448E-26
-0.7690500E+00 -0.2205622E-26
-0.7685400E+00 -0.2263253E-26
-0.7680300E+00 -0.2322377E-26
-0.7675200E+00 -0.2383033E-26
-0.7670100E+00 -0.2445260E-26
-0.7665000E+00 -0.2509099E-26
-0.7659900E+00 -0.2574591E-26
-0.7654800E+00 -0.2641779E-26
-0.7649700E+00 -0.2710706E-26
-0.7644600E+00 -0.2781416E-26
-0.7639500E+00 -0.2853957E-26
-0.7634400E+00 -0.2928374E-26
-0.7629300E+00 -0.3004716E-26
-0.7624200E+00 -0.3083033E-26
-0.7619100E+00 -0.3163376E-26
-0.7614000E+00 -0.3245796E-26
-0.7608900E+00 -0.3330347E-26
-0.7603800E+00 -0.3417085E-26
-0.7598700E+00 -0.3506064E-26
-0.7593600E+00 -0.3597344E-26
-0.7588500E+00 -0.3690982E-26
-0.7583400E+00 -0.3787040E-26
-0.7578300E+00 -0.3885579E-26
-0.7573200E+00 -0.3986663E-26
-0.7568100E+00 -0.4090359E-26
-0.7563000E+00 -0.4196731E-26
-0.7557900E+00 -0.4305849E-26
-0.7552800E+00 -0.4417782E-26
-0.7547700E+00 -0.4532603E-26
-0.7542600E+00 -0.4650386E-26
-0.7537500E+00 -0.4771205E-26
-0.7532400E+00 -0.4895138E-26
-0.7527300E+00 -0.5022265E-26
-0.7522200E+00 -0.5152665E-26
-0.7517100E+00 -0.5286423E-26
-0.7512000E+00 -0.5423624E-26
-0.7506900E+00 -0.5564355E-26
-0.7501800E+00 -0.5708705E-26
-0.7496700E+00 -0.5856767E-26
-0.7491600E+00 -0.6008635E-26
-0.7486500E+00 -0.6164406E-26
-0.7481400E+00 -0.6324178E-26
-0.7476300E+00 -0.6488054E-26
-0.7471200E+00 -0.6656138E-26
-0.7466100E+00 -0.6828536E-26
-0.7461000E+00 -0.7005360E-26
-0.7455900E+00 -0.7186721E-26
-0.7450800E+00 -0.7372735E-26
-0.7445700E+00 -0.7563521E-26
-0.7440600E+00 -0.7759200E-26
-0.7435500E+00 -0.7959899E-26
-0.7430400E+00 -0.8165743E-26
-0.7425300E+00 -0.8376867E-26
-0.7420200E+00 -0.8593403E-26
-0.7415100E+00 -0.8815491E-26
-0.7410000E+00 -0.9043271E-26
-0.7404900E+00 -0.9276890E-26
-0.7399800E+00 -0.9516496E-26
-0.7394700E+00 -0.9762242E-26
-0.7389600E+00 -0.1001428E-25
-0.7384500E+00 -0.1027278E-25
-0.7379400E+00 -0.1053790E-25
-0.7374300E+00 -0.1080980E-25
-0.7369200E+00 -0.1108867E-25
-0.7364100E+00 -0.1137467E-25
-0.7359000E+00 -0.1166799E-25
-0.7353900E+00 -0.1196882E-25
-0.7348800E+00 -0.1227733E-25
-0.7343700E+00 -0.1259374E-25
-0.7338600E+00 -0.1291823E-25
-0.7333500E+00 -0.1325102E-25
-0.7328400E+00 -0.1359230E-25
-0.7323300E+00 -0.1394231E-25
-0.7318200E+00 -0.1430125E-25
-0.7313100E+00 -0.1466935E-25
-0.7308000E+00 -0.1504686E-25
-0.7302900E+00 -0.1543399E-25
-0.7297800E+00 -0.1583101E-25
-0.7292700E+00 -0.1623815E-25
-0.7287600E+00 -0.1665568E-25
-0.7282500E+00 -0.1708386E-25
-0.7277400E+00 -0.1752296E-25
-0.7272300E+00 -0.1797325E-25
-0.7267200E+00 -0.1843503E-25
-0.7262100E+00 -0.1890858E-25
-0.7257000E+00 -0.1939420E-25
-0.7251900E+00 -0.1989220E-25
-0.7246800E+00 -0.2040288E-25
-0.7241700E+00 -0.2092658E-25
-0.7236600E+00 -0.2146362E-25
-0.7231500E+00 -0.2201434E-25
-0.7226400E+00 -0.2257908E-25
-0.7221300E+00 -0.2315820E-25
-0.7216200E+00 -0.2375206E-25
-0.7211100E+00 -0.2436102E-25
-0.7206000E+00 -0.2498548E-25
-0.7200900E+00 -0.2562581E-25
-0.7195800E+00 -0.2628241E-25
-0.7190700E+00 -0.2695569E-25
-0.7185600E+00 -0.2764608E-25
-0.7180500E+00 -0.2835399E-25
-0.7175400E+00 -0.2907986E-25
-0.7170300E+00 -0.2982414E-25
-0.7165200E+00 -0.3058730E-25
-0.7160100E+00 -0.3136980E-25
-0.7155000E+00 -0.3217213E-25
-0.7149900E+00 -0.3299479E-25
-0.7144800E+00 -0.3383827E-25
-0.7139700E+00 -0.3470311E-25
-0.7134600E+00 -0.3558985E-25
-0.7129500E+00 -0.3649902E-25
-0.7124400E+00 -0.3743120E-25
-0.7119300E+00 -0.3838697E-25
-0.7114200E+00 -0.3936691E-25
-0.7109100E+00 -0.4037164E-25
-0.7104000E+00 -0.4140179E-25
-0.7098900E+00 -0.4245799E-25
-0.7093800E+00 -0.4354090E-25
-0.7088700E+00 -0.4465120E-25
-0.7083600E+00 -0.4578957E-25
-0.7078500E+00 -0.4695674E-25
-0.7073400E+00 -0.4815341E-25
-0.7068300E+00 -0.4938035E-25
-0.7063200E+00 -0.5063830E-25
-0.7058100E+00 -0.5192805E-25
-0.7053000E+00 -0.5325040E-25
-0.7047900E+00 -0.5460617E-25
-0.7042800E+00 -0.5599619E-25
-0.7037700E+00 -0.5742133E-25
-0.7032600E+00 -0.5888246E-25
-0.7027500E+00 -0.6038048E-25
-0.7022400E+00 -0.6191631E-25
-0.7017300E+00 -0.6349088E-25
-0.7012200E+00 -0.6510518E-25
-0.7007100E+00 -0.6676019E-25
-0.7002000E+00 -0.6845691E-25
-0.6996900E+00 -0.7019639E-25
-0.6991800E+00 -0.7197969E-25
-0.6986700E+00 -0.7380790E-25
-0.6981600E+00 -0.7568214E-25
-0.6976500E+00 -0.7760356E-25
-0.6971400E+00 -0.7957332E-25
-0.6966300E+00 -0.8159264E-25
-0.6961200E+00 -0.8366274E-25
-0.6956100E+00 -0.8578491E-25
-0.6951000E+00 -0.8796044E-25
-0.6945900E+00 -0.9019066E-25
-0.6940800E+00 -0.9247695E-25
-0.6935700E+00 -0.9482070E-25
-0.6930600E+00 -0.9722337E-25
-0.6925500E+00 -0.9968641E-25
-0.6920400E+00 -0.1022113E-24
-0.6915300E+00 -0.1047997E-24
-0.6910200E+00 -0.1074531E-24
-0.6905100E+00 -0.1101732E-24