-0.1200000E+01 -0.1387256E-12
-0.1199490E+01 -0.1412776E-12
-0.1198980E+01 -0.1438758E-12
-0.1198470E+01 -0.1465212E-12
-0.1197960E+01 -0.1492144E-12
-0.1197450E+01 -0.1519563E-12
-0.1196940E+01 -0.1547479E-12
-0.1196430E+01 -0.1575898E-12
-0.1195920E+01 -0.1604831E-12
-0.1195410E+01 -0.1634287E-12
-0.1194900E+01 -0.1664273E-12
-0.1194390E+01 -0.1694800E-12
-0.1193880E+01 -0.1725877E-12
-0.1193370E+01 -0.1757514E-12
-0.1192860E+01 -0.1789721E-12
-0.1192350E+01 -0.1822508E-12
-0.1191840E+01 -0.1855885E-12
-0.1191330E+01 -0.1889862E-12
-0.1190820E+01 -0.1924452E-12
-0.1190310E+01 -0.1959664E-12
-0.1189800E+01 -0.1995510E-12
-0.1189290E+01 -0.2032001E-12
-0.1188780E+01 -0.2069149E-12
-0.1188270E+01 -0.2106965E-12
-0.1187760E+01 -0.2145462E-12
-0.1187250E+01 -0.2184652E-12
-0.1186740E+01 -0.2224546E-12
-0.1186230E+01 -0.2265158E-12
-0.1185720E+01 -0.2306499E-12
-0.1185210E+01 -0.2348583E-12
-0.1184700E+01 -0.2391423E-12
-0.1184190E+01 -0.2435032E-12
-0.1183680E+01 -0.2479422E-12
-0.1183170E+01 -0.2524609E-12
-0.1182660E+01 -0.2570605E-12
-0.1182150E+01 -0.2617425E-12
-0.1181640E+01 -0.2665083E-12
-0.1181130E+01 -0.2713594E-12
-0.1180620E+01 -0.2762973E-12
-0.1180110E+01 -0.2813234E-12
-0.1179600E+01 -0.2864394E-12
-0.1179090E+01 -0.2916468E-12
-0.1178580E+01 -0.2969473E-12
-0.1178070E+01 -0.3023424E-12
-0.1177560E+01 -0.3078339E-12
-0.1177050E+01 -0.3134235E-12
-0.1176540E+01 -0.3191129E-12
-0.1176030E+01 -0.3249039E-12
-0.1175520E+01 -0.3307983E-12
-0.1175010E+01 -0.3367979E-12
-0.1174500E+01 -0.3429046E-12
-0.1173990E+01 -0.3491203E-12
-0.1173480E+01 -0.3554468E-12
-0.1172970E+01 -0.3618861E-12
-0.1172460E+01 -0.3684401E-12
-0.1171950E+01 -0.3751110E-12
-0.1171440E+01 -0.3819006E-12
-0.1170930E+01 -0.3888112E-12
-0.1170420E+01 -0.3958446E-12
-0.1169910E+01 -0.4030032E-12
-0.1169400E+01 -0.4102889E-12
-0.1168890E+01 -0.4177042E-12
-0.1168380E+01 -0.4252511E-12
-0.1167870E+01 -0.4329320E-12
-0.1167360E+01 -0.4407493E-12
-0.1166850E+01 -0.4487053E-12
-0.1166340E+01 -0.4568023E-12
-0.1165830E+01 -0.4650430E-12
-0.1165320E+01 -0.4734298E-12
-0.1164810E+01 -0.4819652E-12
-0.1164300E+01 -0.4906519E-12
-0.1163790E+01 -0.4994925E-12
-0.1163280E+01 -0.5084898E-12
-0.1162770E+01 -0.5176464E-12
-0.1162260E+01 -0.5269652E-12
-0.1161750E+01 -0.5364489E-12
-0.1161240E+01 -0.5461005E-12
-0.1160730E+01 -0.5559229E-12
-0.1160220E+01 -0.5659191E-12
-0.1159710E+01 -0.5760920E-12
-0.1159200E+01 -0.5864447E-12
-0.1158690E+01 -0.5969803E-12
-0.1158180E+01 -0.6077020E-12
-0.1157670E+01 -0.6186131E-12
-0.1157160E+01 -0.6297167E-12
-0.1156650E+01 -0.6410161E-12
-0.1156140E+01 -0.6525148E-12
-0.1155630E+01 -0.6642162E-12
-0.1155120E+01 -0.6761239E-12
-0.1154610E+01 -0.6882412E-12
-0.1154100E+01 -0.7005720E-12
-0.1153590E+01 -0.7131198E-12
-0.1153080E+01 -0.7258885E-12
-0.1152570E+01 -0.7388818E-12
-0.1152060E+01 -0.7521037E-12
-0.1151550E+01 -0.7655581E-12
-0.1151040E+01 -0.7792491E-12
-0.1150530E+01 -0.7931806E-12
-0.1150020E+01 -0.8073570E-12
-0.1149510E+01 -0.8217825E-12
-0.1149000E+01 -0.8364613E-12
-0.1148490E+01 -0.8513978E-12
-0.1147980E+01 -0.8665966E-12
-0.1147470E+01 -0.8820620E-12
-0.1146960E+01 -0.8977988E-12
-0.1146450E+01 -0.9138116E-12
-0.1145940E+01 -0.9301051E-12
-0.1145430E+01 -0.9466841E-12
-0.1144920E+01 -0.9635537E-12
-0.1144410E+01 -0.9807185E-12
-0.1143900E+01 -0.9981840E-12
-0.1143390E+01 -0.1015955E-11
-0.1142880E+01 -0.1034037E-11
-0.1142370E+01 -0.1052435E-11
-0.1141860E+01 -0.1071155E-11
-0.1141350E+01 -0.1090202E-11
-0.1140840E+01 -0.1109581E-11
-0.1140330E+01 -0.1129299E-11
-0.1139820E+01 -0.1149362E-11
-0.1139310E+01 -0.1169774E-11
-0.1138800E+01 -0.1190543E-11
-0.1138290E+01 -0.1211674E-11
-0.1137780E+01 -0.1233173E-11
-0.1137270E+01 -0.1255047E-11
-0.1136760E+01 -0.1277303E-11
-0.1136250E+01 -0.1299946E-11
-0.1135740E+01 -0.1322984E-11
-0.1135230E+01 -0.1346423E-11
-0.1134720E+01 -0.1370270E-11
-0.1134210E+01 -0.1394532E-11
-0.1133700E+01 -0.1419216E-11
-0.1133190E+01 -0.1444330E-11
-0.1132680E+01 -0.1469880E-11
-0.1132170E+01 -0.1495874E-11
-0.1131660E+01 -0.1522320E-11
-0.1131150E+01 -0.1549225E-11
-0.1130640E+01 -0.1576597E-11
-0.1130130E+01 -0.1604445E-11
-0.1129620E+01 -0.1632775E-11
-0.1129110E+01 -0.1661597E-11
-0.1128600E+01 -0.1690919E-11
-0.1128090E+01 -0.1720749E-11
-0.1127580E+01 -0.1751096E-11
-0.1127070E+01 -0.1781969E-11
-0.1126560E+01 -0.1813376E-11
-0.1126050E+01 -0.1845327E-11
-0.1125540E+01 -0.1877831E-11
-0.1125030E+01 -0.1910897E-11
-0.1124520E+01 -0.1944535E-11
-0.1124010E+01 -0.1978755E-11
-0.1123500E+01 -0.2013567E-11
-0.1122990E+01 -0.2048979E-11
-0.1122480E+01 -0.2085004E-11
-0.1121970E+01 -0.2121651E-11
-0.1121460E+01 -0.2158931E-11
-0.1120950E+01 -0.2196854E-11
-0.1120440E+01 -0.2235431E-11
-0.1119930E+01 -0.2274674E-11
-0.1119420E+01 -0.2314594E-11
-0.1118910E+01 -0.2355201E-11
-0.1118400E+01 -0.2396509E-11
-0.1117890E+01 -0.2438528E-11
-0.1117380E+01 -0.2481271E-11
-0.1116870E+01 -0.2524749E-11
-0.1116360E+01 -0.2568976E-11
-0.1115850E+01 -0.2613964E-11
-0.1115340E+01 -0.2659725E-11
-0.1114830E+01 -0.2706273E-11
-0.1114320E+01 -0.2753621E-11
-0.1113810E+01 -0.2801782E-11
-0.1113300E+01 -0.2850771E-11
-0.1112790E+01 -0.2900600E-11
-0.1112280E+01 -0.2951285E-11
-0.1111770E+01 -0.3002839E-11
-0.1111260E+01 -0.3055278E-11
-0.1110750E+01 -0.3108616E-11
-0.1110240E+01 -0.3162868E-11
-0.1109730E+01 -0.3218050E-11
-0.1109220E+01 -0.3274178E-11
-0.1108710E+01 -0.3331266E-11
-0.1108200E+01 -0.3389333E-11
-0.1107690E+01 -0.3448393E-11
-0.1107180E+01 -0.3508464E-11
-0.1106670E+01 -0.3569563E-11
-0.1106160E+01 -0.3631707E-11
-0.1105650E+01 -0.3694913E-11
-0.1105140E+01 -0.3759199E-11
-0.1104630E+01 -0.3824583E-11
-0.1104120E+01 -0.3891085E-11
-0.1103610E+01 -0.3958721E-11
-0.1103100E+01 -0.4027511E-11
-0.1102590E+01 -0.4097475E-11
-0.1102080E+01 -0.4168632E-11
-0.1101570E+01 -0.4241002E-11
-0.1101060E+01 -0.4314606E-11
-0.1100550E+01 -0.4389463E-11
-0.1100040E+01 -0.4465595E-11
-0.1099530E+01 -0.4543023E-11
-0.1099020E+01 -0.4621769E-11
-0.1098510E+01 -0.4701855E-11
-0.1098000E+01 -0.4783303E-11
-0.1097490E+01 -0.4866137E-11
-0.1096980E+01 -0.4950378E-11
-0.1096470E+01 -0.5036052E-11
-0.1095960E+01 -0.5123181E-11
-0.1095450E+01 -0.5211790E-11
-0.1094940E+01 -0.5301904E-11
-0.1094430E+01 -0.5393547E-11
-0.1093920E+01 -0.5486746E-11
-0.1093410E+01 -0.5581525E-11
-0.1092900E+01 -0.5677911E-11
-0.1092390E+01 -0.5775931E-11
-0.1091880E+01 -0.5875612E-11
-0.1091370E+01 -0.5976982E-11
-0.1090860E+01 -0.6080069E-11
-0.1090350E+01 -0.6184900E-11
-0.1089840E+01 -0.6291506E-11
-0.1089330E+01 -0.6399914E-11
-0.1088820E+01 -0.6510157E-11
-0.1088310E+01 -0.6622262E-11
-0.1087800E+01 -0.6736263E-11
-0.1087290E+01 -0.6852189E-11
-0.1086780E+01 -0.6970073E-11
-0.1086270E+01 -0.7089948E-11
-0.1085760E+01 -0.7211846E-11
-0.1085250E+01 -0.7335800E-11
-0.1084740E+01 -0.7461846E-11
-0.1084230E+01 -0.7590017E-11
-0.1083720E+01 -0.7720350E-11
-0.1083210E+01 -0.7852878E-11
-0.1082700E+01 -0.7987639E-11
-0.1082190E+01 -0.8124669E-11
-0.1081680E+01 -0.8264007E-11
-0.1081170E+01 -0.8405689E-11
-0.1080660E+01 -0.8549756E-11
-0.1080150E+01 -0.8696245E-11
-0.1079640E+01 -0.8845197E-11
-0.1079130E+01 -0.8996653E-11
-0.1078620E+01 -0.9150654E-11
-0.1078110E+01 -0.9307242E-11
-0.1077600E+01 -0.9466458E-11
-0.1077090E+01 -0.9628347E-11
-0.1076580E+01 -0.9792952E-11
-0.1076070E+01 -0.9960318E-11
-0.1075560E+01 -0.1013049E-10
-0.1075050E+01 -0.1030352E-10
-0.1074540E+01 -0.1047944E-10
-0.1074030E+01 -0.1065831E-10
-0.1073520E+01 -0.1084018E-10
-0.1073010E+01 -0.1102509E-10
-0.1072500E+01 -0.1121310E-10
-0.1071990E+01 -0.1140425E-10
-0.1071480E+01 -0.1159860E-10
-0.1070970E+01 -0.1179620E-10
-0.1070460E+01 -0.1199710E-10
-0.1069950E+01 -0.1220136E-10
-0.1069440E+01 -0.1240902E-10
-0.1068930E+01 -0.1262016E-10
-0.1068420E+01 -0.1283482E-10
-0.1067910E+01 -0.1305306E-10
-0.1067400E+01 -0.1327495E-10
-0.1066890E+01 -0.1350053E-10
-0.1066380E+01 -0.1372988E-10
-0.1065870E+01 -0.1396304E-10
-0.1065360E+01 -0.1420009E-10
-0.1064850E+01 -0.1444109E-10
-0.1064340E+01 -0.1468610E-10
-0.1063830E+01 -0.1493519E-10
-0.1063320E+01 -0.1518842E-10
-0.1062810E+01 -0.1544586E-10
-0.1062300E+01 -0.1570759E-10
-0.1061790E+01 -0.1597366E-10
-0.1061280E+01 -0.1624415E-10
-0.1060770E+01 -0.1651914E-10
-0.1060260E+01 -0.1679869E-10
-0.1059750E+01 -0.1708288E-10
-0.1059240E+01 -0.1737178E-10
-0.1058730E+01 -0.1766548E-10
-0.1058220E+01 -0.1796405E-10
-0.1057710E+01 -0.1826757E-10
-0.1057200E+01 -0.1857611E-10
-0.1056690E+01 -0.1888977E-10
-0.1056180E+01 -0.1920862E-10
-0.1055670E+01 -0.1953275E-10
-0.1055160E+01 -0.1986225E-10
-0.1054650E+01 -0.2019719E-10
-0.1054140E+01 -0.2053768E-10
-0.1053630E+01 -0.2088380E-10
-0.1053120E+01 -0.2123563E-10
-0.1052610E+01 -0.2159328E-10
-0.1052100E+01 -0.2195683E-10
-0.1051590E+01 -0.2232639E-10
-0.1051080E+01 -0.2270205E-10
-0.1050570E+01 -0.2308390E-10
-0.1050060E+01 -0.2347205E-10
-0.1049550E+01 -0.2386660E-10
-0.1049040E+01 -0.2426765E-10
-0.1048530E+01 -0.2467531E-10
-0.1048020E+01 -0.2508968E-10
-0.1047510E+01 -0.2551088E-10
-0.1047000E+01 -0.2593901E-10
-0.1046490E+01 -0.2637418E-10
-0.1045980E+01 -0.2681651E-10
-0.1045470E+01 -0.2726612E-10
-0.1044960E+01 -0.2772312E-10
-0.1044450E+01 -0.2818762E-10
-0.1043940E+01 -0.2865976E-10
-0.1043430E+01 -0.2913965E-10
-0.1042920E+01 -0.2962742E-10
-0.1042410E+01 -0.3012319E-10
-0.1041900E+01 -0.3062709E-10
-0.1041390E+01 -0.3113926E-10
-0.1040880E+01 -0.3165983E-10
-0.1040370E+01 -0.3218894E-10
-0.1039860E+01 -0.3272670E-10
-0.1039350E+01 -0.3327328E-10
-0.1038840E+01 -0.3382880E-10
-0.1038330E+01 -0.3439342E-10
-0.1037820E+01 -0.3496727E-10
-0.1037310E+01 -0.3555050E-10
-0.1036800E+01 -0.3614328E-10
-0.1036290E+01 -0.3674573E-10
-0.1035780E+01 -0.3735804E-10
-0.1035270E+01 -0.3798034E-10
-0.1034760E+01 -0.3861280E-10
-0.1034250E+01 -0.3925558E-10
-0.1033740E+01 -0.3990886E-10
-0.1033230E+01 -0.4057278E-10
-0.1032720E+01 -0.4124754E-10
-0.1032210E+01 -0.4193329E-10
-0.1031700E+01 -0.4263022E-10
-0.1031190E+01 -0.4333850E-10
-0.1030680E+01 -0.4405831E-10
-0.1030170E+01 -0.4478984E-10
-0.1029660E+01 -0.4553328E-10
-0.1029150E+01 -0.4628881E-10
-0.1028640E+01 -0.4705663E-10
-0.1028130E+01 -0.4783693E-10
-0.1027620E+01 -0.4862990E-10
-0.1027110E+01 -0.4943576E-10
-0.1026600E+01 -0.5025471E-10
-0.1026090E+01 -0.5108695E-10
-0.1025580E+01 -0.5193269E-10
-0.1025070E+01 -0.5279216E-10
-0.1024560E+01 -0.5366557E-10
-0.1024050E+01 -0.5455313E-10
-0.1023540E+01 -0.5545507E-10
-0.1023030E+01 -0.5637163E-10
-0.1022520E+01 -0.5730303E-10
-0.1022010E+01 -0.5824952E-10
-0.1021500E+01 -0.5921132E-10
-0.1020990E+01 -0.6018867E-10
-0.1020480E+01 -0.6118184E-10
-0.1019970E+01 -0.6219106E-10
-0.1019460E+01 -0.6321659E-10
-0.1018950E+01 -0.6425869E-10
-0.1018440E+01 -0.6531762E-10
-0.1017930E+01 -0.6639365E-10
-0.1017420E+01 -0.6748704E-10
-0.1016910E+01 -0.6859808E-10
-0.1016400E+01 -0.6972704E-10
-0.1015890E+01 -0.7087420E-10
-0.1015380E+01 -0.7203985E-10
-0.1014870E+01 -0.7322428E-10
-0.1014360E+01 -0.7442779E-10
-0.1013850E+01 -0.7565067E-10
-0.1013340E+01 -0.7689324E-10
-0.1012830E+01 -0.7815580E-10
-0.1012320E+01 -0.7943866E-10
-0.1011810E+01 -0.8074216E-10
-0.1011300E+01 -0.8206660E-10
-0.1010790E+01 -0.8341232E-10
-0.1010280E+01 -0.8477966E-10
-0.1009770E+01 -0.8616895E-10
-0.1009260E+01 -0.8758054E-10
-0.1008750E+01 -0.8901478E-10
-0.1008240E+01 -0.9047203E-10
-0.1007730E+01 -0.9195264E-10
-0.1007220E+01 -0.9345699E-10
-0.1006710E+01 -0.9498544E-10
-0.1006200E+01 -0.9653837E-10
-0.1005690E+01 -0.9811618E-10
-0.1005180E+01 -0.9971925E-10
-0.1004670E+01 -0.1013480E-09
-0.1004160E+01 -0.1030027E-09
-0.1003650E+01 -0.1046840E-09
-0.1003140E+01 -0.1063921E-09
-0.1002630E+01 -0.1081275E-09
-0.1002120E+01 -0.1098906E-09
-0.1001610E+01 -0.1116819E-09
-0.1001100E+01 -0.1135017E-09
-0.1000590E+01 -0.1153507E-09
-0.1000080E+01 -0.1172290E-09
-0.9995700E+00 -0.1191374E-09
-0.9990600E+00 -0.1210762E-09
-0.9985500E+00 -0.1230458E-09
-0.9980400E+00 -0.1250468E-09
-0.9975300E+00 -0.1270797E-09
-0.9970200E+00 -0.1291450E-09
-0.9965100E+00 -0.1312431E-09
-0.9960000E+00 -0.1333746E-09
-0.9954900E+00 -0.1355399E-09
-0.9949800E+00 -0.1377397E-09
-0.9944700E+00 -0.1399745E-09
-0.9939600E+00 -0.1422447E-09
-0.9934500E+00 -0.1445511E-09
-0.9929400E+00 -0.1468940E-09
-0.9924300E+00 -0.1492741E-09
-0.9919200E+00 -0.1516920E-09
-0.9914100E+00 -0.1541482E-09
-0.9909000E+00 -0.1566433E-09
-0.9903900E+00 -0.1591780E-09
-0.9898800E+00 -0.1617529E-09
-0.9893700E+00 -0.1643685E-09
-0.9888600E+00 -0.1670255E-09
-0.9883500E+00 -0.1697246E-09
-0.9878400E+00 -0.1724664E-09
-0.9873300E+00 -0.1752515E-09
-0.9868200E+00 -0.1780806E-09
-0.9863100E+00 -0.1809545E-09
-0.9858000E+00 -0.1838737E-09
-0.9852900E+00 -0.1868390E-09
-0.9847800E+00 -0.1898512E-09
-0.9842700E+00 -0.1929108E-09
-0.9837600E+00 -0.1960187E-09
-0.9832500E+00 -0.1991757E-09
-0.9827400E+00 -0.2023823E-09
-0.9822300E+00 -0.2056396E-09
-0.9817200E+00 -0.2089481E-09
-0.9812100E+00 -0.2123088E-09
-0.9807000E+00 -0.2157223E-09
-0.9801900E+00 -0.2191896E-09
-0.9796800E+00 -0.2227114E-09
-0.9791700E+00 -0.2262886E-09
-0.9786600E+00 -0.2299220E-09
-0.9781500E+00 -0.2336125E-09
-0.9776400E+00 -0.2373610E-09
-0.9771300E+00 -0.2411683E-09
-0.9766200E+00 -0.2450354E-09
-0.9761100E+00 -0.2489632E-09
-0.9756000E+00 -0.2529526E-09
-0.9750900E+00 -0.2570046E-09
-0.9745800E+00 -0.2611200E-09
-0.9740700E+00 -0.2652999E-09
-0.9735600E+00 -0.2695454E-09
-0.9730500E+00 -0.2738572E-09
-0.9725400E+00 -0.2782366E-09
-0.9720300E+00 -0.2826845E-09
-0.9715200E+00 -0.2872020E-09
-0.9710100E+00 -0.2917901E-09
-0.9705000E+00 -0.2964499E-09
-0.9699900E+00 -0.3011825E-09
-0.9694800E+00 -0.3059890E-09
-0.9689700E+00 -0.3108706E-09
-0.9684600E+00 -0.3158284E-09
-0.9679500E+00 -0.3208636E-09
-0.9674400E+00 -0.3259772E-09
-0.9669300E+00 -0.3311706E-09
-0.9664200E+00 -0.3364450E-09
-0.9659100E+00 -0.3418015E-09
-0.9654000E+00 -0.3472415E-09
-0.9648900E+00 -0.3527661E-09
-0.9643800E+00 -0.3583767E-09
-0.9638700E+00 -0.3640747E-09
-0.9633600E+00 -0.3698612E-09
-0.9628500E+00 -0.3757377E-09
-0.9623400E+00 -0.3817056E-09
-0.9618300E+00 -0.3877661E-09
-0.9613200E+00 -0.3939208E-09
-0.9608100E+00 -0.4001710E-09
-0.9603000E+00 -0.4065182E-09
-0.9597900E+00 -0.4129639E-09
-0.9592800E+00 -0.4195095E-09
-0.9587700E+00 -0.4261566E-09
-0.9582600E+00 -0.4329067E-09
-0.9577500E+00 -0.4397614E-09
-0.9572400E+00 -0.4467222E-09
-0.9567300E+00 -0.4537908E-09
-0.9562200E+00 -0.4609688E-09
-0.9557100E+00 -0.4682578E-09
-0.9552000E+00 -0.4756596E-09
-0.9546900E+00 -0.4831757E-09
-0.9541800E+00 -0.4908080E-09
-0.9536700E+00 -0.4985582E-09
-0.9531600E+00 -0.5064281E-09
-0.9526500E+00 -0.5144194E-09
-0.9521400E+00 -0.5225341E-09
-0.9516300E+00 -0.5307739E-09
-0.9511200E+00 -0.5391407E-09
-0.9506100E+00 -0.5476365E-09
-0.9501000E+00 -0.5562633E-09
-0.9495900E+00 -0.5650230E-09
-0.9490800E+00 -0.5739175E-09
-0.9485700E+00 -0.5829489E-09
-0.9480600E+00 -0.5921193E-09
-0.9475500E+00 -0.6014307E-09
-0.9470400E+00 -0.6108853E-09
-0.9465300E+00 -0.6204853E-09
-0.9460200E+00 -0.6302327E-09
-0.9455100E+00 -0.6401298E-09
-0.9450000E+00 -0.6501789E-09
-0.9444900E+00 -0.6603821E-09
-0.9439800E+00 -0.6707419E-09
-0.9434700E+00 -0.6812605E-09
-0.9429600E+00 -0.6919404E-09
-0.9424500E+00 -0.7027840E-09
-0.9419400E+00 -0.7137937E-09
-0.9414300E+00 -0.7249720E-09
-0.9409200E+00 -0.7363213E-09
-0.9404100E+00 -0.7478443E-09
-0.9399000E+00 -0.7595437E-09
-0.9393900E+00 -0.7714218E-09
-0.9388800E+00 -0.7834816E-09
-0.9383700E+00 -0.7957256E-09
-0.9378600E+00 -0.8081567E-09
-0.9373500E+00 -0.8207776E-09
-0.9368400E+00 -0.8335911E-09
-0.9363300E+00 -0.8466001E-09
-0.9358200E+00 -0.8598076E-09
-0.9353100E+00 -0.8732165E-09
-0.9348000E+00 -0.8868297E-09
-0.9342900E+00 -0.9006504E-09
-0.9337800E+00 -0.9146816E-09
-0.9332700E+00 -0.9289263E-09
-0.9327600E+00 -0.9433879E-09
-0.9322500E+00 -0.9580695E-09
-0.9317400E+00 -0.9729744E-09
-0.9312300E+00 -0.9881058E-09
-0.9307200E+00 -0.1003467E-08
-0.9302100E+00 -0.1019062E-08
-0.9297000E+00 -0.1034894E-08
-0.9291900E+00 -0.1050965E-08
-0.9286800E+00 -0.1067281E-08
-0.9281700E+00 -0.1083844E-08
-0.9276600E+00 -0.1100659E-08
-0.9271500E+00 -0.1117728E-08
-0.9266400E+00 -0.1135056E-08
-0.9261300E+00 -0.1152646E-08
-0.9256200E+00 -0.1170503E-08
-0.9251100E+00 -0.1188630E-08
-0.9246000E+00 -0.1207031E-08
-0.9240900E+00 -0.1225711E-08
-0.9235800E+00 -0.1244673E-08
-0.9230700E+00 -0.1263921E-08
-0.9225600E+00 -0.1283461E-08
-0.9220500E+00 -0.1303295E-08
-0.9215400E+00 -0.1323429E-08
-0.9210300E+00 -0.1343867E-08
-0.9205200E+00 -0.1364614E-08
-0.9200100E+00 -0.1385673E-08
-0.9195000E+00 -0.1407049E-08
-0.9189900E+00 -0.1428748E-08
-0.9184800E+00 -0.1450773E-08
-0.9179700E+00 -0.1473130E-08
-0.9174600E+00 -0.1495823E-08
-0.9169500E+00 -0.1518858E-08
-0.9164400E+00 -0.1542240E-08
-0.9159300E+00 -0.1565973E-08
-0.9154200E+00 -0.1590063E-08
-0.9149100E+00 -0.1614514E-08
-0.9144000E+00 -0.1639333E-08
-0.9138900E+00 -0.1664525E-08
-0.9133800E+00 -0.1690094E-08
-0.9128700E+00 -0.1716047E-08
-0.9123600E+00 -0.1742390E-08
-0.9118500E+00 -0.1769127E-08
-0.9113400E+00 -0.1796265E-08
-0.9108300E+00 -0.1823809E-08
-0.9103200E+00 -0.1851766E-08
-0.9098100E+00 -0.1880142E-08
-0.9093000E+00 -0.1908942E-08
-0.9087900E+00 -0.1938173E-08
-0.9082800E+00 -0.1967841E-08
-0.9077700E+00 -0.1997952E-08
-0.9072600E+00 -0.2028513E-08
-0.9067500E+00 -0.2059530E-08
-0.9062400E+00 -0.2091011E-08
-0.9057300E+00 -0.2122961E-08
-0.9052200E+00 -0.2155388E-08
-0.9047100E+00 -0.2188299E-08
-0.9042000E+00 -0.2221700E-08
-0.9036900E+00 -0.2255599E-08
-0.9031800E+00 -0.2290003E-08
-0.9026700E+00 -0.2324919E-08
-0.9021600E+00 -0.2360355E-08
-0.9016500E+00 -0.2396319E-08
-0.9011400E+00 -0.2432817E-08
-0.9006300E+00 -0.2469858E-08
-0.9001200E+00 -0.2507450E-08
-0.8996100E+00 -0.2545600E-08
-0.8991000E+00 -0.2584317E-08
-0.8985900E+00 -0.2623608E-08
-0.8980800E+00 -0.2663483E-08
-0.8975700E+00 -0.2703949E-08
-0.8970600E+00 -0.2745015E-08
-0.8965500E+00 -0.2786690E-08
-0.8960400E+00 -0.2828982E-08
-0.8955300E+00 -0.2871901E-08
-0.8950200E+00 -0.2915455E-08
-0.8945100E+00 -0.2959654E-08
-0.8940000E+00 -0.3004506E-08
-0.8934900E+00 -0.3050022E-08
-0.8929800E+00 -0.3096212E-08
-0.8924700E+00 -0.3143083E-08
-0.8919600E+00 -0.3190647E-08
-0.8914500E+00 -0.3238914E-08
-0.8909400E+00 -0.3287893E-08
-0.8904300E+00 -0.3337594E-08
-0.8899200E+00 -0.3388029E-08
-0.8894100E+00 -0.3439208E-08
-0.8889000E+00 -0.3491141E-08
-0.8883900E+00 -0.3543839E-08
-0.8878800E+00 -0.3597314E-08
-0.8873700E+00 -0.3651576E-08
-0.8868600E+00 -0.3706637E-08
-0.8863500E+00 -0.3762507E-08
-0.8858400E+00 -0.3819200E-08
-0.8853300E+00 -0.3876725E-08
-0.8848200E+00 -0.3935096E-08
-0.8843100E+00 -0.3994325E-08
-0.8838000E+00 -0.4054423E-08
-0.8832900E+00 -0.4115403E-08
-0.8827800E+00 -0.4177278E-08
-0.8822700E+00 -0.4240061E-08
-0.8817600E+00 -0.4303764E-08
-0.8812500E+00 -0.4368400E-08
-0.8807400E+00 -0.4433984E-08
-0.8802300E+00 -0.4500528E-08
-0.8797200E+00 -0.4568046E-08
-0.8792100E+00 -0.4636552E-08
-0.8787000E+00 -0.4706061E-08
-0.8781900E+00 -0.4776586E-08
-0.8776800E+00 -0.4848141E-08
-0.8771700E+00 -0.4920743E-08
-0.8766600E+00 -0.4994404E-08
-0.8761500E+00 -0.5069142E-08
-0.8756400E+00 -0.5144970E-08
-0.8751300E+00 -0.5221904E-08
-0.8746200E+00 -0.5299960E-08
-0.8741100E+00 -0.5379155E-08
-0.8736000E+00 -0.5459503E-08
-0.8730900E+00 -0.5541022E-08
-0.8725800E+00 -0.5623728E-08
-0.8720700E+00 -0.5707637E-08
-0.8715600E+00 -0.5792767E-08
-0.8710500E+00 -0.5879135E-08
-0.8705400E+00 -0.5966760E-08
-0.8700300E+00 -0.6055657E-08
-0.8695200E+00 -0.6145846E-08
-0.8690100E+00 -0.6237344E-08
-0.8685000E+00 -0.6330171E-08
-0.8679900E+00 -0.6424346E-08
-0.8674800E+00 -0.6519886E-08
-0.8669700E+00 -0.6616811E-08
-0.8664600E+00 -0.6715141E-08
-0.8659500E+00 -0.6814896E-08
-0.8654400E+00 -0.6916095E-08
-0.8649300E+00 -0.7018760E-08
-0.8644200E+00 -0.7122910E-08
-0.8639100E+00 -0.7228568E-08
-0.8634000E+00 -0.7335753E-08
-0.8628900E+00 -0.7444488E-08
-0.8623800E+00 -0.7554793E-08
-0.8618700E+00 -0.7666692E-08
-0.8613600E+00 -0.7780207E-08
-0.8608500E+00 -0.7895360E-08
-0.8603400E+00 -0.8012174E-08
-0.8598300E+00 -0.8130673E-08
-0.8593200E+00 -0.8250880E-08
-0.8588100E+00 -0.8372819E-08
-0.8583000E+00 -0.8496515E-08
-0.8577900E+00 -0.8621991E-08
-0.8572800E+00 -0.8749273E-08
-0.8567700E+00 -0.8878387E-08
-0.8562600E+00 -0.9009357E-08
-0.8557500E+00 -0.9142210E-08
-0.8552400E+00 -0.9276972E-08
-0.8547300E+00 -0.9413671E-08
-0.8542200E+00 -0.9552332E-08
-0.8537100E+00 -0.9692984E-08
-0.8532000E+00 -0.9835654E-08
-0.8526900E+00 -0.9980370E-08
-0.8521800E+00 -0.1012716E-07
-0.8516700E+00 -0.1027606E-07
-0.8511600E+00 -0.1042708E-07
-0.8506500E+00 -0.1058028E-07
-0.8501400E+00 -0.1073566E-07
-0.8496300E+00 -0.1089327E-07
-0.8491200E+00 -0.1105313E-07
-0.8486100E+00 -0.1121528E-07
-0.8481000E+00 -0.1137974E-07
-0.8475900E+00 -0.1154656E-07
-0.8470800E+00 -0.1171575E-07
-0.8465700E+00 -0.1188737E-07
-0.8460600E+00 -0.1206143E-07
-0.8455500E+00 -0.1223797E-07
-0.8450400E+00 -0.1241703E-07
-0.8445300E+00 -0.1259865E-07
-0.8440200E+00 -0.1278285E-07
-0.8435100E+00 -0.1296967E-07
-0.8430000E+00 -0.1315916E-07
-0.8424900E+00 -0.1335134E-07
-0.8419800E+00 -0.1354625E-07
-0.8414700E+00 -0.1374394E-07
-0.8409600E+00 -0.1394443E-07
-0.8404500E+00 -0.1414778E-07
-0.8399400E+00 -0.1435401E-07
-0.8394300E+00 -0.1456318E-07
-0.8389200E+00 -0.1477531E-07
-0.8384100E+00 -0.1499045E-07
-0.8379000E+00 -0.1520864E-07
-0.8373900E+00 -0.1542992E-07
-0.8368800E+00 -0.1565434E-07
-0.8363700E+00 -0.1588193E-07
-0.8358600E+00 -0.1611275E-07
-0.8353500E+00 -0.1634684E-07
-0.8348400E+00 -0.1658424E-07
-0.8343300E+00 -0.1682499E-07
-0.8338200E+00 -0.1706915E-07
-0.8333100E+00 -0.1731676E-07
-0.8328000E+00 -0.1756786E-07
-0.8322900E+00 -0.1782251E-07
-0.8317800E+00 -0.1808075E-07
-0.8312700E+00 -0.1834264E-07
-0.8307600E+00 -0.1860822E-07
-0.8302500E+00 -0.1887754E-07
-0.8297400E+00 -0.1915066E-07
-0.8292300E+00 -0.1942762E-07
-0.8287200E+00 -0.1970849E-07
-0.8282100E+00 -0.1999331E-07
-0.8277000E+00 -0.2028213E-07
-0.8271900E+00 -0.2057502E-07
-0.8266800E+00 -0.2087202E-07
-0.8261700E+00 -0.2117320E-07
-0.8256600E+00 -0.2147861E-07
-0.8251500E+00 -0.2178830E-07
-0.8246400E+00 -0.2210234E-07
-0.8241300E+00 -0.2242079E-07
-0.8236200E+00 -0.2274371E-07
-0.8231100E+00 -0.2307114E-07
-0.8226000E+00 -0.2340317E-07
-0.8220900E+00 -0.2373985E-07
-0.8215800E+00 -0.2408124E-07
-0.8210700E+00 -0.2442741E-07
-0.8205600E+00 -0.2477842E-07
-0.8200500E+00 -0.2513434E-07
-0.8195400E+00 -0.2549523E-07
-0.8190300E+00 -0.2586117E-07
-0.8185200E+00 -0.2623221E-07
-0.8180100E+00 -0.2660844E-07
-0.8175000E+00 -0.2698992E-07
-0.8169900E+00 -0.2737672E-07
-0.8164800E+00 -0.2776891E-07
-0.8159700E+00 -0.2816658E-07
-0.8154600E+00 -0.2856978E-07
-0.8149500E+00 -0.2897860E-07
-0.8144400E+00 -0.2939311E-07
-0.8139300E+00 -0.2981339E-07
-0.8134200E+00 -0.3023952E-07
-0.8129100E+00 -0.3067157E-07
-0.8124000E+00 -0.3110963E-07
-0.8118900E+00 -0.3155377E-07
-0.8113800E+00 -0.3200408E-07
-0.8108700E+00 -0.3246064E-07
-0.8103600E+00 -0.3292354E-07
-0.8098500E+00 -0.3339287E-07
-0.8093400E+00 -0.3386869E-07
-0.8088300E+00 -0.3435112E-07
-0.8083200E+00 -0.3484022E-07
-0.8078100E+00 -0.3533610E-07
-0.8073000E+00 -0.3583884E-07
-0.8067900E+00 -0.3634854E-07
-0.8062800E+00 -0.3686529E-07
-0.8057700E+00 -0.3738918E-07
-0.8052600E+00 -0.3792032E-07
-0.8047500E+00 -0.3845879E-07
-0.8042400E+00 -0.3900469E-07
-0.8037300E+00 -0.3955813E-07
-0.8032200E+00 -0.4011921E-07
-0.8027100E+00 -0.4068803E-07
-0.8022000E+00 -0.4126469E-07
-0.8016900E+00 -0.4184930E-07
-0.8011800E+00 -0.4244196E-07
-0.8006700E+00 -0.4304279E-07
-0.8001600E+00 -0.4365188E-07
-0.7996500E+00 -0.4426936E-07
-0.7991400E+00 -0.4489533E-07
-0.7986300E+00 -0.4552991E-07
-0.7981200E+00 -0.4617321E-07
-0.7976100E+00 -0.4682534E-07
-0.7971000E+00 -0.4748643E-07
-0.7965900E+00 -0.4815659E-07
-0.7960800E+00 -0.4883595E-07
-0.7955700E+00 -0.4952462E-07
-0.7950600E+00 -0.5022273E-07
-0.7945500E+00 -0.5093041E-07
-0.7940400E+00 -0.5164778E-07
-0.7935300E+00 -0.5237496E-07
-0.7930200E+00 -0.5311210E-07
-0.7925100E+00 -0.5385933E-07
-0.7920000E+00 -0.5461677E-07
-0.7914900E+00 -0.5538456E-07
-0.7909800E+00 -0.5616284E-07
-0.7904700E+00 -0.5695175E-07
-0.7899600E+00 -0.5775144E-07
-0.7894500E+00 -0.5856203E-07
-0.7889400E+00 -0.5938369E-07
-0.7884300E+00 -0.6021654E-07
-0.7879200E+00 -0.6106075E-07
-0.7874100E+00 -0.6191647E-07
-0.7869000E+00 -0.6278383E-07
-0.7863900E+00 -0.6366301E-07
-0.7858800E+00 -0.6455415E-07
-0.7853700E+00 -0.6545741E-07
-0.7848600E+00 -0.6637295E-07
-0.7843500E+00 -0.6730093E-07
-0.7838400E+00 -0.6824152E-07
-0.7833300E+00 -0.6919488E-07
-0.7828200E+00 -0.7016117E-07
-0.7823100E+00 -0.7114058E-07
-0.7818000E+00 -0.7213326E-07
-0.7812900E+00 -0.7313940E-07
-0.7807800E+00 -0.7415917E-07
-0.7802700E+00 -0.7519276E-07
-0.7797600E+00 -0.7624034E-07
-0.7792500E+00 -0.7730210E-07
-0.7787400E+00 -0.7837822E-07
-0.7782300E+00 -0.7946889E-07
-0.7777200E+00 -0.8057430E-07
-0.7772100E+00 -0.8169465E-07
-0.7767000E+00 -0.8283013E-07
-0.7761900E+00 -0.8398094E-07
-0.7756800E+00 -0.8514728E-07
-0.7751700E+00 -0.8632936E-07
-0.7746600E+00 -0.8752737E-07
-0.7741500E+00 -0.8874153E-07
-0.7736400E+00 -0.8997205E-07
-0.7731300E+00 -0.9121914E-07
-0.7726200E+00 -0.9248301E-07
-0.7721100E+00 -0.9376388E-07
-0.7716000E+00 -0.9506198E-07
-0.7710900E+00 -0.9637753E-07
-0.7705800E+00 -0.9771075E-07
-0.7700700E+00 -0.9906189E-07
-0.7695600E+00 -0.1004312E-06
-0.7690500E+00 -0.1018188E-06
-0.7685400E+00 -0.1032251E-06
-0.7680300E+00 -0.1046502E-06
-0.7675200E+00 -0.1060944E-06
-0.7670100E+00 -0.1075580E-06
-0.7665000E+00 -0.1090412E-06
-0.7659900E+00 -0.1105442E-06
-0.7654800E+00 -0.1120673E-06
-0.7649700E+00 -0.1136109E-06
-0.7644600E+00 -0.1151750E-06
-0.7639500E+00 -0.1167600E-06
-0.7634400E+00 -0.1183663E-06
-0.7629300E+00 -0.1199939E-06
-0.7624200E+00 -0.1216433E-06
-0.7619100E+00 -0.1233147E-06
-0.7614000E+00 -0.1250084E-06
-0.7608900E+00 -0.1267247E-06
-0.7603800E+00 -0.1284638E-06
-0.7598700E+00 -0.1302261E-06
-0.7593600E+00 -0.1320119E-06
-0.7588500E+00 -0.1338214E-06
-0.7583400E+00 -0.1356550E-06
-0.7578300E+00 -0.1375130E-06
-0.7573200E+00 -0.1393957E-06
-0.7568100E+00 -0.1413033E-06
-0.7563000E+00 -0.1432363E-06
-0.7557900E+00 -0.1451950E-06
-0.7552800E+00 -0.1471796E-06
-0.7547700E+00 -0.1491906E-06
-0.7542600E+00 -0.1512282E-06
-0.7537500E+00 -0.1532929E-06
-0.7532400E+00 -0.1553848E-06
-0.7527300E+00 -0.1575045E-06
-0.7522200E+00 -0.1596522E-06
-0.7517100E+00 -0.1618283E-06
-0.7512000E+00 -0.1640332E-06
-0.7506900E+00 -0.1662673E-06
-0.7501800E+00 -0.1685308E-06
-0.7496700E+00 -0.1708243E-06
-0.7491600E+00 -0.1731480E-06
-0.7486500E+00 -0.1755024E-06
-0.7481400E+00 -0.1778878E-06
-0.7476300E+00 -0.1803047E-06
-0.7471200E+00 -0.1827535E-06
-0.7466100E+00 -0.1852345E-06
-0.7461000E+00 -0.1877481E-06
-0.7455900E+00 -0.1902949E-06
-0.7450800E+00 -0.1928751E-06
-0.7445700E+00 -0.1954893E-06
-0.7440600E+00 -0.1981378E-06
-0.7435500E+00 -0.2008211E-06
-0.7430400E+00 -0.2035397E-06
-0.7425300E+00 -0.2062940E-06
-0.7420200E+00 -0.2090844E-06
-0.7415100E+00 -0.2119114E-06
-0.7410000E+00 -0.2147754E-06
-0.7404900E+00 -0.2176770E-06
-0.7399800E+00 -0.2206165E-06
-0.7394700E+00 -0.2235946E-06
-0.7389600E+00 -0.2266116E-06
-0.7384500E+00 -0.2296681E-06
-0.7379400E+00 -0.2327645E-06
-0.7374300E+00 -0.2359014E-06
-0.7369200E+00 -0.2390792E-06
-0.7364100E+00 -0.2422986E-06
-0.7359000E+00 -0.2455600E-06
-0.7353900E+00 -0.2488640E-06
-0.7348800E+00 -0.2522110E-06
-0.7343700E+00 -0.2556017E-06
-0.7338600E+00 -0.2590365E-06
-0.7333500E+00 -0.2625161E-06
-0.7328400E+00 -0.2660410E-06
-0.7323300E+00 -0.2696117E-06
-0.7318200E+00 -0.2732289E-06
-0.7313100E+00 -0.2768932E-06
-0.7308000E+00 -0.2806051E-06
-0.7302900E+00 -0.2843651E-06
-0.7297800E+00 -0.2881740E-06
-0.7292700E+00 -0.2920324E-06
-0.7287600E+00 -0.2959408E-06
-0.7282500E+00 -0.2998998E-06
-0.7277400E+00 -0.3039102E-06
-0.7272300E+00 -0.3079725E-06
-0.7267200E+00 -0.3120874E-06
-0.7262100E+00 -0.3162556E-06
-0.7257000E+00 -0.3204777E-06
-0.7251900E+00 -0.3247544E-06
-0.7246800E+00 -0.3290864E-06
-0.7241700E+00 -0.3334744E-06
-0.7236600E+00 -0.3379191E-06
-0.7231500E+00 -0.3424212E-06
-0.7226400E+00 -0.3469813E-06
-0.7221300E+00 -0.3516003E-06
-0.7216200E+00 -0.3562789E-06
-0.7211100E+00 -0.3610177E-06
-0.7206000E+00 -0.3658176E-06
-0.7200900E+00 -0.3706793E-06
-0.7195800E+00 -0.3756036E-06
-0.7190700E+00 -0.3805912E-06
-0.7185600E+00 -0.3856430E-06
-0.7180500E+00 -0.3907597E-06
-0.7175400E+00 -0.3959422E-06
-0.7170300E+00 -0.4011912E-06
-0.7165200E+00 -0.4065075E-06
-0.7160100E+00 -0.4118921E-06
-0.7155000E+00 -0.4173457E-06
-0.7149900E+00 -0.4228693E-06
-0.7144800E+00 -0.4284636E-06
-0.7139700E+00 -0.4341295E-06
-0.7134600E+00 -0.4398680E-06
-0.7129500E+00 -0.4456799E-06
-0.7124400E+00 -0.4515662E-06
-0.7119300E+00 -0.4575277E-06
-0.7114200E+00 -0.4635654E-06
-0.7109100E+00 -0.4696802E-06
-0.7104000E+00 -0.4758731E-06
-0.7098900E+00 -0.4821450E-06
-0.7093800E+00 -0.4884970E-06
-0.7088700E+00 -0.4949300E-06
-0.7083600E+00 -0.5014450E-06
-0.7078500E+00 -0.5080429E-06
-0.7073400E+00 -0.5147249E-06
-0.7068300E+00 -0.5214920E-06
-0.7063200E+00 -0.5283452E-06
-0.7058100E+00 -0.5352855E-06
-0.7053000E+00 -0.5423140E-06
-0.7047900E+00 -0.5494318E-06
-0.7042800E+00 -0.5566400E-06
-0.7037700E+00 -0.5639398E-06
-0.7032600E+00 -0.5713321E-06
-0.7027500E+00 -0.5788181E-06
-0.7022400E+00 -0.5863990E-06
-0.7017300E+00 -0.5940760E-06
-0.7012200E+00 -0.6018502E-06
-0.7007100E+00 -0.6097228E-06
-0.7002000E+00 -0.6176950E-06
-0.6996900E+00 -0.6257681E-06
-0.6991800E+00 -0.6339433E-06
-0.6986700E+00 -0.6422217E-06
-0.6981600E+00 -0.6506048E-06
-0.6976500E+00 -0.6590936E-06
-0.6971400E+00 -0.6676897E-06
-0.6966300E+00 -0.6763942E-06
-0.6961200E+00 -0.6852084E-06
-0.6956100E+00 -0.6941337E-06
-0.6951000E+00 -0.7031716E-06
-0.6945900E+00 -0.7123232E-06
-0.6940800E+00 -0.7215900E-06
-0.6935700E+00 -0.7309733E-06
-0.6930600E+00 -0.7404747E-06
-0.6925500E+00 -0.7500955E-06
-0.6920400E+00 -0.7598371E-06
-0.6915300E+00 -0.7697011E-06
-0.6910200E+00 -0.7796888E-06
-0.6905100E+00 -0.7898019E-06