-0.1200000E+01 -0.6920145E-25
-0.1199490E+01 -0.7095949E-25
-0.1198980E+01 -0.7276184E-25
-0.1198470E+01 -0.7460961E-25
-0.1197960E+01 -0.7650392E-25
-0.1197450E+01 -0.7844594E-25
-0.1196940E+01 -0.8043684E-25
-0.1196430E+01 -0.8247785E-25
-0.1195920E+01 -0.8457020E-25
-0.1195410E+01 -0.8671518E-25
-0.1194900E+01 -0.8891408E-25
-0.1194390E+01 -0.9116825E-25
-0.1193880E+01 -0.9347906E-25
-0.1193370E+01 -0.9584791E-25
-0.1192860E+01 -0.9827627E-25
-0.1192350E+01 -0.1007656E-24
-0.1191840E+01 -0.1033174E-24
-0.1191330E+01 -0.1059333E-24
-0.1190820E+01 -0.1086148E-24
-0.1190310E+01 -0.1113637E-24
-0.1189800E+01 -0.1141815E-24
-0.1189290E+01 -0.1170699E-24
-0.1188780E+01 -0.1200309E-24
-0.1188270E+01 -0.1230661E-24
-0.1187760E+01 -0.1261774E-24
-0.1187250E+01 -0.1293667E-24
-0.1186740E+01 -0.1326360E-24
-0.1186230E+01 -0.1359872E-24
-0.1185720E+01 -0.1394224E-24
-0.1185210E+01 -0.1429436E-24
-0.1184700E+01 -0.1465530E-24
-0.1184190E+01 -0.1502527E-24
-0.1183680E+01 -0.1540451E-24
-0.1183170E+01 -0.1579323E-24
-0.1182660E+01 -0.1619168E-24
-0.1182150E+01 -0.1660009E-24
-0.1181640E+01 -0.1701872E-24
-0.1181130E+01 -0.1744781E-24
-0.1180620E+01 -0.1788762E-24
-0.1180110E+01 -0.1833841E-24
-0.1179600E+01 -0.1880047E-24
-0.1179090E+01 -0.1927407E-24
-0.1178580E+01 -0.1975949E-24
-0.1178070E+01 -0.2025703E-24
-0.1177560E+01 -0.2076699E-24
-0.1177050E+01 -0.2128968E-24
-0.1176540E+01 -0.2182541E-24
-0.1176030E+01 -0.2237450E-24
-0.1175520E+01 -0.2293729E-24
-0.1175010E+01 -0.2351411E-24
-0.1174500E+01 -0.2410532E-24
-0.1173990E+01 -0.2471127E-24
-0.1173480E+01 -0.2533232E-24
-0.1172970E+01 -0.2596884E-24
-0.1172460E+01 -0.2662122E-24
-0.1171950E+01 -0.2728986E-24
-0.1171440E+01 -0.2797514E-24
-0.1170930E+01 -0.2867749E-24
-0.1170420E+01 -0.2939731E-24
-0.1169910E+01 -0.3013505E-24
-0.1169400E+01 -0.3089115E-24
-0.1168890E+01 -0.3166605E-24
-0.1168380E+01 -0.3246022E-24
-0.1167870E+01 -0.3327413E-24
-0.1167360E+01 -0.3410827E-24
-0.1166850E+01 -0.3496314E-24
-0.1166340E+01 -0.3583924E-24
-0.1165830E+01 -0.3673710E-24
-0.1165320E+01 -0.3765726E-24
-0.1164810E+01 -0.3860027E-24
-0.1164300E+01 -0.3956668E-24
-0.1163790E+01 -0.4055707E-24
-0.1163280E+01 -0.4157204E-24
-0.1162770E+01 -0.4261218E-24
-0.1162260E+01 -0.4367812E-24
-0.1161750E+01 -0.4477050E-24
-0.1161240E+01 -0.4588996E-24
-0.1160730E+01 -0.4703716E-24
-0.1160220E+01 -0.4821279E-24
-0.1159710E+01 -0.4941755E-24
-0.1159200E+01 -0.5065215E-24
-0.1158690E+01 -0.5191732E-24
-0.1158180E+01 -0.5321383E-24
-0.1157670E+01 -0.5454242E-24
-0.1157160E+01 -0.5590390E-24
-0.1156650E+01 -0.5729905E-24
-0.1156140E+01 -0.5872872E-24
-0.1155630E+01 -0.6019375E-24
-0.1155120E+01 -0.6169499E-24
-0.1154610E+01 -0.6323334E-24
-0.1154100E+01 -0.6480971E-24
-0.1153590E+01 -0.6642502E-24
-0.1153080E+01 -0.6808023E-24
-0.1152570E+01 -0.6977632E-24
-0.1152060E+01 -0.7151429E-24
-0.1151550E+01 -0.7329516E-24
-0.1151040E+01 -0.7511998E-24
-0.1150530E+01 -0.7698984E-24
-0.1150020E+01 -0.7890582E-24
-0.1149510E+01 -0.8086906E-24
-0.1149000E+01 -0.8288072E-24
-0.1148490E+01 -0.8494199E-24
-0.1147980E+01 -0.8705406E-24
-0.1147470E+01 -0.8921820E-24
-0.1146960E+01 -0.9143565E-24
-0.1146450E+01 -0.9370774E-24
-0.1145940E+01 -0.9603579E-24
-0.1145430E+01 -0.9842117E-24
-0.1144920E+01 -0.1008653E-23
-0.1144410E+01 -0.1033695E-23
-0.1143900E+01 -0.1059354E-23
-0.1143390E+01 -0.1085645E-23
-0.1142880E+01 -0.1112582E-23
-0.1142370E+01 -0.1140181E-23
-0.1141860E+01 -0.1168459E-23
-0.1141350E+01 -0.1197432E-23
-0.1140840E+01 -0.1227117E-23
-0.1140330E+01 -0.1257531E-23
-0.1139820E+01 -0.1288693E-23
-0.1139310E+01 -0.1320619E-23
-0.1138800E+01 -0.1353330E-23
-0.1138290E+01 -0.1386844E-23
-0.1137780E+01 -0.1421180E-23
-0.1137270E+01 -0.1456358E-23
-0.1136760E+01 -0.1492400E-23
-0.1136250E+01 -0.1529325E-23
-0.1135740E+01 -0.1567156E-23
-0.1135230E+01 -0.1605915E-23
-0.1134720E+01 -0.1645623E-23
-0.1134210E+01 -0.1686305E-23
-0.1133700E+01 -0.1727983E-23
-0.1133190E+01 -0.1770682E-23
-0.1132680E+01 -0.1814427E-23
-0.1132170E+01 -0.1859243E-23
-0.1131660E+01 -0.1905155E-23
-0.1131150E+01 -0.1952192E-23
-0.1130640E+01 -0.2000379E-23
-0.1130130E+01 -0.2049745E-23
-0.1129620E+01 -0.2100318E-23
-0.1129110E+01 -0.2152128E-23
-0.1128600E+01 -0.2205204E-23
-0.1128090E+01 -0.2259577E-23
-0.1127580E+01 -0.2315279E-23
-0.1127070E+01 -0.2372341E-23
-0.1126560E+01 -0.2430797E-23
-0.1126050E+01 -0.2490680E-23
-0.1125540E+01 -0.2552025E-23
-0.1125030E+01 -0.2614867E-23
-0.1124520E+01 -0.2679243E-23
-0.1124010E+01 -0.2745189E-23
-0.1123500E+01 -0.2812744E-23
-0.1122990E+01 -0.2881945E-23
-0.1122480E+01 -0.2952834E-23
-0.1121970E+01 -0.3025451E-23
-0.1121460E+01 -0.3099837E-23
-0.1120950E+01 -0.3176036E-23
-0.1120440E+01 -0.3254091E-23
-0.1119930E+01 -0.3334047E-23
-0.1119420E+01 -0.3415950E-23
-0.1118910E+01 -0.3499847E-23
-0.1118400E+01 -0.3585786E-23
-0.1117890E+01 -0.3673816E-23
-0.1117380E+01 -0.3763987E-23
-0.1116870E+01 -0.3856352E-23
-0.1116360E+01 -0.3950963E-23
-0.1115850E+01 -0.4047874E-23
-0.1115340E+01 -0.4147140E-23
-0.1114830E+01 -0.4248819E-23
-0.1114320E+01 -0.4352968E-23
-0.1113810E+01 -0.4459646E-23
-0.1113300E+01 -0.4568916E-23
-0.1112790E+01 -0.4680838E-23
-0.1112280E+01 -0.4795477E-23
-0.1111770E+01 -0.4912898E-23
-0.1111260E+01 -0.5033167E-23
-0.1110750E+01 -0.5156354E-23
-0.1110240E+01 -0.5282529E-23
-0.1109730E+01 -0.5411762E-23
-0.1109220E+01 -0.5544128E-23
-0.1108710E+01 -0.5679702E-23
-0.1108200E+01 -0.5818561E-23
-0.1107690E+01 -0.5960784E-23
-0.1107180E+01 -0.6106451E-23
-0.1106670E+01 -0.6255645E-23
-0.1106160E+01 -0.6408451E-23
-0.1105650E+01 -0.6564955E-23
-0.1105140E+01 -0.6725247E-23
-0.1104630E+01 -0.6889416E-23
-0.1104120E+01 -0.7057555E-23
-0.1103610E+01 -0.7229760E-23
-0.1103100E+01 -0.7406129E-23
-0.1102590E+01 -0.7586760E-23
-0.1102080E+01 -0.7771756E-23
-0.1101570E+01 -0.7961221E-23
-0.1101060E+01 -0.8155263E-23
-0.1100550E+01 -0.8353990E-23
-0.1100040E+01 -0.8557515E-23
-0.1099530E+01 -0.8765953E-23
-0.1099020E+01 -0.8979420E-23
-0.1098510E+01 -0.9198037E-23
-0.1098000E+01 -0.9421927E-23
-0.1097490E+01 -0.9651217E-23
-0.1096980E+01 -0.9886035E-23
-0.1096470E+01 -0.1012651E-22
-0.1095960E+01 -0.1037279E-22
-0.1095450E+01 -0.1062499E-22
-0.1094940E+01 -0.1088327E-22
-0.1094430E+01 -0.1114778E-22
-0.1093920E+01 -0.1141865E-22
-0.1093410E+01 -0.1169604E-22
-0.1092900E+01 -0.1198011E-22
-0.1092390E+01 -0.1227101E-22
-0.1091880E+01 -0.1256891E-22
-0.1091370E+01 -0.1287398E-22
-0.1090860E+01 -0.1318638E-22
-0.1090350E+01 -0.1350630E-22
-0.1089840E+01 -0.1383390E-22
-0.1089330E+01 -0.1416937E-22
-0.1088820E+01 -0.1451291E-22
-0.1088310E+01 -0.1486469E-22
-0.1087800E+01 -0.1522493E-22
-0.1087290E+01 -0.1559381E-22
-0.1086780E+01 -0.1597155E-22
-0.1086270E+01 -0.1635835E-22
-0.1085760E+01 -0.1675443E-22
-0.1085250E+01 -0.1716001E-22
-0.1084740E+01 -0.1757532E-22
-0.1084230E+01 -0.1800059E-22
-0.1083720E+01 -0.1843605E-22
-0.1083210E+01 -0.1888195E-22
-0.1082700E+01 -0.1933853E-22
-0.1082190E+01 -0.1980604E-22
-0.1081680E+01 -0.2028476E-22
-0.1081170E+01 -0.2077493E-22
-0.1080660E+01 -0.2127684E-22
-0.1080150E+01 -0.2179076E-22
-0.1079640E+01 -0.2231698E-22
-0.1079130E+01 -0.2285579E-22
-0.1078620E+01 -0.2340749E-22
-0.1078110E+01 -0.2397237E-22
-0.1077600E+01 -0.2455076E-22
-0.1077090E+01 -0.2514298E-22
-0.1076580E+01 -0.2574934E-22
-0.1076070E+01 -0.2637019E-22
-0.1075560E+01 -0.2700586E-22
-0.1075050E+01 -0.2765672E-22
-0.1074540E+01 -0.2832311E-22
-0.1074030E+01 -0.2900541E-22
-0.1073520E+01 -0.2970399E-22
-0.1073010E+01 -0.3041923E-22
-0.1072500E+01 -0.3115153E-22
-0.1071990E+01 -0.3190130E-22
-0.1071480E+01 -0.3266894E-22
-0.1070970E+01 -0.3345487E-22
-0.1070460E+01 -0.3425953E-22
-0.1069950E+01 -0.3508337E-22
-0.1069440E+01 -0.3592682E-22
-0.1068930E+01 -0.3679037E-22
-0.1068420E+01 -0.3767447E-22
-0.1067910E+01 -0.3857961E-22
-0.1067400E+01 -0.3950630E-22
-0.1066890E+01 -0.4045504E-22
-0.1066380E+01 -0.4142634E-22
-0.1065870E+01 -0.4242074E-22
-0.1065360E+01 -0.4343878E-22
-0.1064850E+01 -0.4448102E-22
-0.1064340E+01 -0.4554803E-22
-0.1063830E+01 -0.4664040E-22
-0.1063320E+01 -0.4775871E-22
-0.1062810E+01 -0.4890358E-22
-0.1062300E+01 -0.5007563E-22
-0.1061790E+01 -0.5127551E-22
-0.1061280E+01 -0.5250387E-22
-0.1060770E+01 -0.5376137E-22
-0.1060260E+01 -0.5504870E-22
-0.1059750E+01 -0.5636657E-22
-0.1059240E+01 -0.5771568E-22
-0.1058730E+01 -0.5909678E-22
-0.1058220E+01 -0.6051060E-22
-0.1057710E+01 -0.6195794E-22
-0.1057200E+01 -0.6343956E-22
-0.1056690E+01 -0.6495626E-22
-0.1056180E+01 -0.6650889E-22
-0.1055670E+01 -0.6809827E-22
-0.1055160E+01 -0.6972527E-22
-0.1054650E+01 -0.7139077E-22
-0.1054140E+01 -0.7309567E-22
-0.1053630E+01 -0.7484089E-22
-0.1053120E+01 -0.7662739E-22
-0.1052610E+01 -0.7845611E-22
-0.1052100E+01 -0.8032805E-22
-0.1051590E+01 -0.8224423E-22
-0.1051080E+01 -0.8420567E-22
-0.1050570E+01 -0.8621344E-22
-0.1050060E+01 -0.8826863E-22
-0.1049550E+01 -0.9037233E-22
-0.1049040E+01 -0.9252568E-22
-0.1048530E+01 -0.9472986E-22
-0.1048020E+01 -0.9698603E-22
-0.1047510E+01 -0.9929542E-22
-0.1047000E+01 -0.1016593E-21
-0.1046490E+01 -0.1040788E-21
-0.1045980E+01 -0.1065555E-21
-0.1045470E+01 -0.1090904E-21
-0.1044960E+01 -0.1116851E-21
-0.1044450E+01 -0.1143409E-21
-0.1043940E+01 -0.1170593E-21
-0.1043430E+01 -0.1198416E-21
-0.1042920E+01 -0.1226895E-21
-0.1042410E+01 -0.1256043E-21
-0.1041900E+01 -0.1285878E-21
-0.1041390E+01 -0.1316414E-21
-0.1040880E+01 -0.1347668E-21
-0.1040370E+01 -0.1379657E-21
-0.1039860E+01 -0.1412398E-21
-0.1039350E+01 -0.1445908E-21
-0.1038840E+01 -0.1480206E-21
-0.1038330E+01 -0.1515309E-21
-0.1037820E+01 -0.1551236E-21
-0.1037310E+01 -0.1588007E-21
-0.1036800E+01 -0.1625642E-21
-0.1036290E+01 -0.1664159E-21
-0.1035780E+01 -0.1703580E-21
-0.1035270E+01 -0.1743926E-21
-0.1034760E+01 -0.1785218E-21
-0.1034250E+01 -0.1827479E-21
-0.1033740E+01 -0.1870730E-21
-0.1033230E+01 -0.1914994E-21
-0.1032720E+01 -0.1960296E-21
-0.1032210E+01 -0.2006659E-21
-0.1031700E+01 -0.2054108E-21
-0.1031190E+01 -0.2102668E-21
-0.1030680E+01 -0.2152364E-21
-0.1030170E+01 -0.2203224E-21
-0.1029660E+01 -0.2255274E-21
-0.1029150E+01 -0.2308541E-21
-0.1028640E+01 -0.2363054E-21
-0.1028130E+01 -0.2418841E-21
-0.1027620E+01 -0.2475933E-21
-0.1027110E+01 -0.2534359E-21
-0.1026600E+01 -0.2594150E-21
-0.1026090E+01 -0.2655338E-21
-0.1025580E+01 -0.2717954E-21
-0.1025070E+01 -0.2782033E-21
-0.1024560E+01 -0.2847608E-21
-0.1024050E+01 -0.2914713E-21
-0.1023540E+01 -0.2983383E-21
-0.1023030E+01 -0.3053656E-21
-0.1022520E+01 -0.3125568E-21
-0.1022010E+01 -0.3199156E-21
-0.1021500E+01 -0.3274460E-21
-0.1020990E+01 -0.3351519E-21
-0.1020480E+01 -0.3430373E-21
-0.1019970E+01 -0.3511064E-21
-0.1019460E+01 -0.3593635E-21
-0.1018950E+01 -0.3678128E-21
-0.1018440E+01 -0.3764588E-21
-0.1017930E+01 -0.3853061E-21
-0.1017420E+01 -0.3943592E-21
-0.1016910E+01 -0.4036228E-21
-0.1016400E+01 -0.4131020E-21
-0.1015890E+01 -0.4228015E-21
-0.1015380E+01 -0.4327265E-21
-0.1014870E+01 -0.4428822E-21
-0.1014360E+01 -0.4532738E-21
-0.1013850E+01 -0.4639068E-21
-0.1013340E+01 -0.4747868E-21
-0.1012830E+01 -0.4859194E-21
-0.1012320E+01 -0.4973104E-21
-0.1011810E+01 -0.5089657E-21
-0.1011300E+01 -0.5208915E-21
-0.1010790E+01 -0.5330940E-21
-0.1010280E+01 -0.5455795E-21
-0.1009770E+01 -0.5583545E-21
-0.1009260E+01 -0.5714256E-21
-0.1008750E+01 -0.5847997E-21
-0.1008240E+01 -0.5984837E-21
-0.1007730E+01 -0.6124846E-21
-0.1007220E+01 -0.6268098E-21
-0.1006710E+01 -0.6414668E-21
-0.1006200E+01 -0.6564630E-21
-0.1005690E+01 -0.6718063E-21
-0.1005180E+01 -0.6875046E-21
-0.1004670E+01 -0.7035660E-21
-0.1004160E+01 -0.7199990E-21
-0.1003650E+01 -0.7368119E-21
-0.1003140E+01 -0.7540134E-21
-0.1002630E+01 -0.7716125E-21
-0.1002120E+01 -0.7896183E-21
-0.1001610E+01 -0.8080400E-21
-0.1001100E+01 -0.8268871E-21
-0.1000590E+01 -0.8461695E-21
-0.1000080E+01 -0.8658969E-21
-0.9995700E+00 -0.8860797E-21
-0.9990600E+00 -0.9067281E-21
-0.9985500E+00 -0.9278529E-21
-0.9980400E+00 -0.9494649E-21
-0.9975300E+00 -0.9715752E-21
-0.9970200E+00 -0.9941953E-21
-0.9965100E+00 -0.1017337E-20
-0.9960000E+00 -0.1041011E-20
-0.9954900E+00 -0.1065231E-20
-0.9949800E+00 -0.1090009E-20
-0.9944700E+00 -0.1115357E-20
-0.9939600E+00 -0.1141288E-20
-0.9934500E+00 -0.1167817E-20
-0.9929400E+00 -0.1194956E-20
-0.9924300E+00 -0.1222719E-20
-0.9919200E+00 -0.1251120E-20
-0.9914100E+00 -0.1280175E-20
-0.9909000E+00 -0.1309897E-20
-0.9903900E+00 -0.1340303E-20
-0.9898800E+00 -0.1371407E-20
-0.9893700E+00 -0.1403225E-20
-0.9888600E+00 -0.1435775E-20
-0.9883500E+00 -0.1469071E-20
-0.9878400E+00 -0.1503132E-20
-0.9873300E+00 -0.1537975E-20
-0.9868200E+00 -0.1573617E-20
-0.9863100E+00 -0.1610076E-20
-0.9858000E+00 -0.1647372E-20
-0.9852900E+00 -0.1685523E-20
-0.9847800E+00 -0.1724548E-20
-0.9842700E+00 -0.1764468E-20
-0.9837600E+00 -0.1805302E-20
-0.9832500E+00 -0.1847071E-20
-0.9827400E+00 -0.1889797E-20
-0.9822300E+00 -0.1933501E-20
-0.9817200E+00 -0.1978206E-20
-0.9812100E+00 -0.2023933E-20
-0.9807000E+00 -0.2070707E-20
-0.9801900E+00 -0.2118551E-20
-0.9796800E+00 -0.2167489E-20
-0.9791700E+00 -0.2217545E-20
-0.9786600E+00 -0.2268746E-20
-0.9781500E+00 -0.2321116E-20
-0.9776400E+00 -0.2374684E-20
-0.9771300E+00 -0.2429474E-20
-0.9766200E+00 -0.2485516E-20
-0.9761100E+00 -0.2542838E-20
-0.9756000E+00 -0.2601467E-20
-0.9750900E+00 -0.2661435E-20
-0.9745800E+00 -0.2722771E-20
-0.9740700E+00 -0.2785506E-20
-0.9735600E+00 -0.2849671E-20
-0.9730500E+00 -0.2915299E-20
-0.9725400E+00 -0.2982423E-20
-0.9720300E+00 -0.3051077E-20
-0.9715200E+00 -0.3121295E-20
-0.9710100E+00 -0.3193111E-20
-0.9705000E+00 -0.3266564E-20
-0.9699900E+00 -0.3341688E-20
-0.9694800E+00 -0.3418523E-20
-0.9689700E+00 -0.3497105E-20
-0.9684600E+00 -0.3577475E-20
-0.9679500E+00 -0.3659674E-20
-0.9674400E+00 -0.3743741E-20
-0.9669300E+00 -0.3829719E-20
-0.9664200E+00 -0.3917651E-20
-0.9659100E+00 -0.4007582E-20
-0.9654000E+00 -0.4099555E-20
-0.9648900E+00 -0.4193617E-20
-0.9643800E+00 -0.4289815E-20
-0.9638700E+00 -0.4388196E-20
-0.9633600E+00 -0.4488811E-20
-0.9628500E+00 -0.4591708E-20
-0.9623400E+00 -0.4696939E-20
-0.9618300E+00 -0.4804557E-20
-0.9613200E+00 -0.4914614E-20
-0.9608100E+00 -0.5027166E-20
-0.9603000E+00 -0.5142269E-20
-0.9597900E+00 -0.5259980E-20
-0.9592800E+00 -0.5380358E-20
-0.9587700E+00 -0.5503461E-20
-0.9582600E+00 -0.5629351E-20
-0.9577500E+00 -0.5758091E-20
-0.9572400E+00 -0.5889745E-20
-0.9567300E+00 -0.6024378E-20
-0.9562200E+00 -0.6162055E-20
-0.9557100E+00 -0.6302846E-20
-0.9552000E+00 -0.6446821E-20
-0.9546900E+00 -0.6594049E-20
-0.9541800E+00 -0.6744605E-20
-0.9536700E+00 -0.6898561E-20
-0.9531600E+00 -0.7055995E-20
-0.9526500E+00 -0.7216984E-20
-0.9521400E+00 -0.7381607E-20
-0.9516300E+00 -0.7549946E-20
-0.9511200E+00 -0.7722082E-20
-0.9506100E+00 -0.7898102E-20
-0.9501000E+00 -0.8078092E-20
-0.9495900E+00 -0.8262141E-20
-0.9490800E+00 -0.8450338E-20
-0.9485700E+00 -0.8642777E-20
-0.9480600E+00 -0.8839553E-20
-0.9475500E+00 -0.9040761E-20
-0.9470400E+00 -0.9246501E-20
-0.9465300E+00 -0.9456874E-20
-0.9460200E+00 -0.9671982E-20
-0.9455100E+00 -0.9891931E-20
-0.9450000E+00 -0.1011683E-19
-0.9444900E+00 -0.1034679E-19
-0.9439800E+00 -0.1058192E-19
-0.9434700E+00 -0.1082233E-19
-0.9429600E+00 -0.1106815E-19
-0.9424500E+00 -0.1131950E-19
-0.9419400E+00 -0.1157649E-19
-0.9414300E+00 -0.1183926E-19
-0.9409200E+00 -0.1210792E-19
-0.9404100E+00 -0.1238262E-19
-0.9399000E+00 -0.1266348E-19
-0.9393900E+00 -0.1295065E-19
-0.9388800E+00 -0.1324426E-19
-0.9383700E+00 -0.1354445E-19
-0.9378600E+00 -0.1385138E-19
-0.9373500E+00 -0.1416519E-19
-0.9368400E+00 -0.1448602E-19
-0.9363300E+00 -0.1481405E-19
-0.9358200E+00 -0.1514943E-19
-0.9353100E+00 -0.1549232E-19
-0.9348000E+00 -0.1584289E-19
-0.9342900E+00 -0.1620131E-19
-0.9337800E+00 -0.1656774E-19
-0.9332700E+00 -0.1694238E-19
-0.9327600E+00 -0.1732540E-19
-0.9322500E+00 -0.1771698E-19
-0.9317400E+00 -0.1811732E-19
-0.9312300E+00 -0.1852661E-19
-0.9307200E+00 -0.1894504E-19
-0.9302100E+00 -0.1937283E-19
-0.9297000E+00 -0.1981017E-19
-0.9291900E+00 -0.2025727E-19
-0.9286800E+00 -0.2071436E-19
-0.9281700E+00 -0.2118165E-19
-0.9276600E+00 -0.2165937E-19
-0.9271500E+00 -0.2214775E-19
-0.9266400E+00 -0.2264702E-19
-0.9261300E+00 -0.2315742E-19
-0.9256200E+00 -0.2367920E-19
-0.9251100E+00 -0.2421261E-19
-0.9246000E+00 -0.2475791E-19
-0.9240900E+00 -0.2531536E-19
-0.9235800E+00 -0.2588522E-19
-0.9230700E+00 -0.2646777E-19
-0.9225600E+00 -0.2706329E-19
-0.9220500E+00 -0.2767207E-19
-0.9215400E+00 -0.2829439E-19
-0.9210300E+00 -0.2893056E-19
-0.9205200E+00 -0.2958087E-19
-0.9200100E+00 -0.3024564E-19
-0.9195000E+00 -0.3092519E-19
-0.9189900E+00 -0.3161985E-19
-0.9184800E+00 -0.3232994E-19
-0.9179700E+00 -0.3305580E-19
-0.9174600E+00 -0.3379779E-19
-0.9169500E+00 -0.3455624E-19
-0.9164400E+00 -0.3533153E-19
-0.9159300E+00 -0.3612403E-19
-0.9154200E+00 -0.3693411E-19
-0.9149100E+00 -0.3776216E-19
-0.9144000E+00 -0.3860857E-19
-0.9138900E+00 -0.3947375E-19
-0.9133800E+00 -0.4035810E-19
-0.9128700E+00 -0.4126205E-19
-0.9123600E+00 -0.4218602E-19
-0.9118500E+00 -0.4313046E-19
-0.9113400E+00 -0.4409581E-19
-0.9108300E+00 -0.4508253E-19
-0.9103200E+00 -0.4609108E-19
-0.9098100E+00 -0.4712195E-19
-0.9093000E+00 -0.4817563E-19
-0.9087900E+00 -0.4925261E-19
-0.9082800E+00 -0.5035340E-19
-0.9077700E+00 -0.5147852E-19
-0.9072600E+00 -0.5262851E-19
-0.9067500E+00 -0.5380390E-19
-0.9062400E+00 -0.5500526E-19
-0.9057300E+00 -0.5623315E-19
-0.9052200E+00 -0.5748815E-19
-0.9047100E+00 -0.5877085E-19
-0.9042000E+00 -0.6008186E-19
-0.9036900E+00 -0.6142179E-19
-0.9031800E+00 -0.6279127E-19
-0.9026700E+00 -0.6419095E-19
-0.9021600E+00 -0.6562149E-19
-0.9016500E+00 -0.6708355E-19
-0.9011400E+00 -0.6857784E-19
-0.9006300E+00 -0.7010504E-19
-0.9001200E+00 -0.7166587E-19
-0.8996100E+00 -0.7326107E-19
-0.8991000E+00 -0.7489138E-19
-0.8985900E+00 -0.7655758E-19
-0.8980800E+00 -0.7826042E-19
-0.8975700E+00 -0.8000073E-19
-0.8970600E+00 -0.8177930E-19
-0.8965500E+00 -0.8359698E-19
-0.8960400E+00 -0.8545461E-19
-0.8955300E+00 -0.8735307E-19
-0.8950200E+00 -0.8929324E-19
-0.8945100E+00 -0.9127601E-19
-0.8940000E+00 -0.9330233E-19
-0.8934900E+00 -0.9537314E-19
-0.8929800E+00 -0.9748939E-19
-0.8924700E+00 -0.9965208E-19
-0.8919600E+00 -0.1018622E-18
-0.8914500E+00 -0.1041208E-18
-0.8909400E+00 -0.1064290E-18
-0.8904300E+00 -0.1087877E-18
-0.8899200E+00 -0.1111981E-18
-0.8894100E+00 -0.1136613E-18
-0.8889000E+00 -0.1161785E-18
-0.8883900E+00 -0.1187508E-18
-0.8878800E+00 -0.1213794E-18
-0.8873700E+00 -0.1240656E-18
-0.8868600E+00 -0.1268106E-18
-0.8863500E+00 -0.1296156E-18
-0.8858400E+00 -0.1324819E-18
-0.8853300E+00 -0.1354109E-18
-0.8848200E+00 -0.1384040E-18
-0.8843100E+00 -0.1414625E-18
-0.8838000E+00 -0.1445878E-18
-0.8832900E+00 -0.1477814E-18
-0.8827800E+00 -0.1510447E-18
-0.8822700E+00 -0.1543793E-18
-0.8817600E+00 -0.1577866E-18
-0.8812500E+00 -0.1612683E-18
-0.8807400E+00 -0.1648260E-18
-0.8802300E+00 -0.1684613E-18
-0.8797200E+00 -0.1721759E-18
-0.8792100E+00 -0.1759714E-18
-0.8787000E+00 -0.1798497E-18
-0.8781900E+00 -0.1838125E-18
-0.8776800E+00 -0.1878616E-18
-0.8771700E+00 -0.1919989E-18
-0.8766600E+00 -0.1962262E-18
-0.8761500E+00 -0.2005456E-18
-0.8756400E+00 -0.2049590E-18
-0.8751300E+00 -0.2094684E-18
-0.8746200E+00 -0.2140760E-18
-0.8741100E+00 -0.2187837E-18
-0.8736000E+00 -0.2235937E-18
-0.8730900E+00 -0.2285083E-18
-0.8725800E+00 -0.2335297E-18
-0.8720700E+00 -0.2386602E-18
-0.8715600E+00 -0.2439022E-18
-0.8710500E+00 -0.2492580E-18
-0.8705400E+00 -0.2547300E-18
-0.8700300E+00 -0.2603208E-18
-0.8695200E+00 -0.2660329E-18
-0.8690100E+00 -0.2718690E-18
-0.8685000E+00 -0.2778316E-18
-0.8679900E+00 -0.2839235E-18
-0.8674800E+00 -0.2901475E-18
-0.8669700E+00 -0.2965063E-18
-0.8664600E+00 -0.3030029E-18
-0.8659500E+00 -0.3096402E-18
-0.8654400E+00 -0.3164213E-18
-0.8649300E+00 -0.3233492E-18
-0.8644200E+00 -0.3304270E-18
-0.8639100E+00 -0.3376580E-18
-0.8634000E+00 -0.3450454E-18
-0.8628900E+00 -0.3525926E-18
-0.8623800E+00 -0.3603030E-18
-0.8618700E+00 -0.3681800E-18
-0.8613600E+00 -0.3762273E-18
-0.8608500E+00 -0.3844485E-18
-0.8603400E+00 -0.3928473E-18
-0.8598300E+00 -0.4014275E-18
-0.8593200E+00 -0.4101929E-18
-0.8588100E+00 -0.4191475E-18
-0.8583000E+00 -0.4282953E-18
-0.8577900E+00 -0.4376405E-18
-0.8572800E+00 -0.4471872E-18
-0.8567700E+00 -0.4569398E-18
-0.8562600E+00 -0.4669027E-18
-0.8557500E+00 -0.4770802E-18
-0.8552400E+00 -0.4874770E-18
-0.8547300E+00 -0.4980978E-18
-0.8542200E+00 -0.5089473E-18
-0.8537100E+00 -0.5200305E-18
-0.8532000E+00 -0.5313521E-18
-0.8526900E+00 -0.5429175E-18
-0.8521800E+00 -0.5547316E-18
-0.8516700E+00 -0.5667999E-18
-0.8511600E+00 -0.5791277E-18
-0.8506500E+00 -0.5917204E-18
-0.8501400E+00 -0.6045839E-18
-0.8496300E+00 -0.6177238E-18
-0.8491200E+00 -0.6311459E-18
-0.8486100E+00 -0.6448564E-18
-0.8481000E+00 -0.6588611E-18
-0.8475900E+00 -0.6731665E-18
-0.8470800E+00 -0.6877788E-18
-0.8465700E+00 -0.7027047E-18
-0.8460600E+00 -0.7179506E-18
-0.8455500E+00 -0.7335236E-18
-0.8450400E+00 -0.7494303E-18
-0.8445300E+00 -0.7656780E-18
-0.8440200E+00 -0.7822738E-18
-0.8435100E+00 -0.7992251E-18
-0.8430000E+00 -0.8165394E-18
-0.8424900E+00 -0.8342245E-18
-0.8419800E+00 -0.8522881E-18
-0.8414700E+00 -0.8707383E-18
-0.8409600E+00 -0.8895832E-18
-0.8404500E+00 -0.9088312E-18
-0.8399400E+00 -0.9284908E-18
-0.8394300E+00 -0.9485707E-18
-0.8389200E+00 -0.9690798E-18
-0.8384100E+00 -0.9900271E-18
-0.8379000E+00 -0.1011422E-17
-0.8373900E+00 -0.1033274E-17
-0.8368800E+00 -0.1055592E-17
-0.8363700E+00 -0.1078387E-17
-0.8358600E+00 -0.1101668E-17
-0.8353500E+00 -0.1125446E-17
-0.8348400E+00 -0.1149731E-17
-0.8343300E+00 -0.1174534E-17
-0.8338200E+00 -0.1199866E-17
-0.8333100E+00 -0.1225738E-17
-0.8328000E+00 -0.1252161E-17
-0.8322900E+00 -0.1279147E-17
-0.8317800E+00 -0.1306707E-17
-0.8312700E+00 -0.1334855E-17
-0.8307600E+00 -0.1363602E-17
-0.8302500E+00 -0.1392960E-17
-0.8297400E+00 -0.1422943E-17
-0.8292300E+00 -0.1453564E-17
-0.8287200E+00 -0.1484836E-17
-0.8282100E+00 -0.1516773E-17
-0.8277000E+00 -0.1549389E-17
-0.8271900E+00 -0.1582697E-17
-0.8266800E+00 -0.1616713E-17
-0.8261700E+00 -0.1651452E-17
-0.8256600E+00 -0.1686928E-17
-0.8251500E+00 -0.1723157E-17
-0.8246400E+00 -0.1760155E-17
-0.8241300E+00 -0.1797938E-17
-0.8236200E+00 -0.1836522E-17
-0.8231100E+00 -0.1875925E-17
-0.8226000E+00 -0.1916162E-17
-0.8220900E+00 -0.1957253E-17
-0.8215800E+00 -0.1999214E-17
-0.8210700E+00 -0.2042063E-17
-0.8205600E+00 -0.2085821E-17
-0.8200500E+00 -0.2130504E-17
-0.8195400E+00 -0.2176134E-17
-0.8190300E+00 -0.2222729E-17
-0.8185200E+00 -0.2270310E-17
-0.8180100E+00 -0.2318897E-17
-0.8175000E+00 -0.2368512E-17
-0.8169900E+00 -0.2419176E-17
-0.8164800E+00 -0.2470910E-17
-0.8159700E+00 -0.2523738E-17
-0.8154600E+00 -0.2577681E-17
-0.8149500E+00 -0.2632764E-17
-0.8144400E+00 -0.2689010E-17
-0.8139300E+00 -0.2746444E-17
-0.8134200E+00 -0.2805089E-17
-0.8129100E+00 -0.2864971E-17
-0.8124000E+00 -0.2926116E-17
-0.8118900E+00 -0.2988551E-17
-0.8113800E+00 -0.3052302E-17
-0.8108700E+00 -0.3117396E-17
-0.8103600E+00 -0.3183862E-17
-0.8098500E+00 -0.3251727E-17
-0.8093400E+00 -0.3321022E-17
-0.8088300E+00 -0.3391776E-17
-0.8083200E+00 -0.3464019E-17
-0.8078100E+00 -0.3537782E-17
-0.8073000E+00 -0.3613096E-17
-0.8067900E+00 -0.3689995E-17
-0.8062800E+00 -0.3768510E-17
-0.8057700E+00 -0.3848676E-17
-0.8052600E+00 -0.3930527E-17
-0.8047500E+00 -0.4014097E-17
-0.8042400E+00 -0.4099422E-17
-0.8037300E+00 -0.4186540E-17
-0.8032200E+00 -0.4275486E-17
-0.8027100E+00 -0.4366299E-17
-0.8022000E+00 -0.4459018E-17
-0.8016900E+00 -0.4553681E-17
-0.8011800E+00 -0.4650330E-17
-0.8006700E+00 -0.4749005E-17
-0.8001600E+00 -0.4849748E-17
-0.7996500E+00 -0.4952603E-17
-0.7991400E+00 -0.5057612E-17
-0.7986300E+00 -0.5164821E-17
-0.7981200E+00 -0.5274275E-17
-0.7976100E+00 -0.5386020E-17
-0.7971000E+00 -0.5500103E-17
-0.7965900E+00 -0.5616574E-17
-0.7960800E+00 -0.5735481E-17
-0.7955700E+00 -0.5856874E-17
-0.7950600E+00 -0.5980806E-17
-0.7945500E+00 -0.6107327E-17
-0.7940400E+00 -0.6236493E-17
-0.7935300E+00 -0.6368356E-17
-0.7930200E+00 -0.6502974E-17
-0.7925100E+00 -0.6640402E-17
-0.7920000E+00 -0.6780699E-17
-0.7914900E+00 -0.6923924E-17
-0.7909800E+00 -0.7070137E-17
-0.7904700E+00 -0.7219399E-17
-0.7899600E+00 -0.7371774E-17
-0.7894500E+00 -0.7527325E-17
-0.7889400E+00 -0.7686119E-17
-0.7884300E+00 -0.7848222E-17
-0.7879200E+00 -0.8013701E-17
-0.7874100E+00 -0.8182626E-17
-0.7869000E+00 -0.8355068E-17
-0.7863900E+00 -0.8531100E-17
-0.7858800E+00 -0.8710794E-17
-0.7853700E+00 -0.8894226E-17
-0.7848600E+00 -0.9081474E-17
-0.7843500E+00 -0.9272614E-17
-0.7838400E+00 -0.9467727E-17
-0.7833300E+00 -0.9666895E-17
-0.7828200E+00 -0.9870201E-17
-0.7823100E+00 -0.1007773E-16
-0.7818000E+00 -0.1028957E-16
-0.7812900E+00 -0.1050580E-16
-0.7807800E+00 -0.1072653E-16
-0.7802700E+00 -0.1095183E-16
-0.7797600E+00 -0.1118181E-16
-0.7792500E+00 -0.1141656E-16
-0.7787400E+00 -0.1165617E-16
-0.7782300E+00 -0.1190075E-16
-0.7777200E+00 -0.1215040E-16
-0.7772100E+00 -0.1240523E-16
-0.7767000E+00 -0.1266532E-16
-0.7761900E+00 -0.1293081E-16
-0.7756800E+00 -0.1320179E-16
-0.7751700E+00 -0.1347838E-16
-0.7746600E+00 -0.1376069E-16
-0.7741500E+00 -0.1404884E-16
-0.7736400E+00 -0.1434295E-16
-0.7731300E+00 -0.1464314E-16
-0.7726200E+00 -0.1494953E-16
-0.7721100E+00 -0.1526226E-16
-0.7716000E+00 -0.1558144E-16
-0.7710900E+00 -0.1590721E-16
-0.7705800E+00 -0.1623971E-16
-0.7700700E+00 -0.1657908E-16
-0.7695600E+00 -0.1692544E-16
-0.7690500E+00 -0.1727895E-16
-0.7685400E+00 -0.1763975E-16
-0.7680300E+00 -0.1800799E-16
-0.7675200E+00 -0.1838383E-16
-0.7670100E+00 -0.1876740E-16
-0.7665000E+00 -0.1915888E-16
-0.7659900E+00 -0.1955842E-16
-0.7654800E+00 -0.1996619E-16
-0.7649700E+00 -0.2038235E-16
-0.7644600E+00 -0.2080708E-16
-0.7639500E+00 -0.2124055E-16
-0.7634400E+00 -0.2168293E-16
-0.7629300E+00 -0.2213441E-16
-0.7624200E+00 -0.2259517E-16
-0.7619100E+00 -0.2306541E-16
-0.7614000E+00 -0.2354530E-16
-0.7608900E+00 -0.2403506E-16
-0.7603800E+00 -0.2453487E-16
-0.7598700E+00 -0.2504495E-16
-0.7593600E+00 -0.2556549E-16
-0.7588500E+00 -0.2609672E-16
-0.7583400E+00 -0.2663885E-16
-0.7578300E+00 -0.2719209E-16
-0.7573200E+00 -0.2775668E-16
-0.7568100E+00 -0.2833285E-16
-0.7563000E+00 -0.2892082E-16
-0.7557900E+00 -0.2952083E-16
-0.7552800E+00 -0.3013314E-16
-0.7547700E+00 -0.3075799E-16
-0.7542600E+00 -0.3139562E-16
-0.7537500E+00 -0.3204631E-16
-0.7532400E+00 -0.3271031E-16
-0.7527300E+00 -0.3338789E-16
-0.7522200E+00 -0.3407934E-16
-0.7517100E+00 -0.3478491E-16
-0.7512000E+00 -0.3550491E-16
-0.7506900E+00 -0.3623962E-16
-0.7501800E+00 -0.3698934E-16
-0.7496700E+00 -0.3775437E-16
-0.7491600E+00 -0.3853502E-16
-0.7486500E+00 -0.3933160E-16
-0.7481400E+00 -0.4014444E-16
-0.7476300E+00 -0.4097387E-16
-0.7471200E+00 -0.4182021E-16
-0.7466100E+00 -0.4268380E-16
-0.7461000E+00 -0.4356501E-16
-0.7455900E+00 -0.4446416E-16
-0.7450800E+00 -0.4538164E-16
-0.7445700E+00 -0.4631781E-16
-0.7440600E+00 -0.4727304E-16
-0.7435500E+00 -0.4824771E-16
-0.7430400E+00 -0.4924223E-16
-0.7425300E+00 -0.5025698E-16
-0.7420200E+00 -0.5129237E-16
-0.7415100E+00 -0.5234882E-16
-0.7410000E+00 -0.5342674E-16
-0.7404900E+00 -0.5452658E-16
-0.7399800E+00 -0.5564876E-16
-0.7394700E+00 -0.5679374E-16
-0.7389600E+00 -0.5796198E-16
-0.7384500E+00 -0.5915394E-16
-0.7379400E+00 -0.6037009E-16
-0.7374300E+00 -0.6161092E-16
-0.7369200E+00 -0.6287692E-16
-0.7364100E+00 -0.6416860E-16
-0.7359000E+00 -0.6548647E-16
-0.7353900E+00 -0.6683106E-16
-0.7348800E+00 -0.6820289E-16
-0.7343700E+00 -0.6960252E-16
-0.7338600E+00 -0.7103050E-16
-0.7333500E+00 -0.7248739E-16
-0.7328400E+00 -0.7397378E-16
-0.7323300E+00 -0.7549024E-16
-0.7318200E+00 -0.7703738E-16
-0.7313100E+00 -0.7861582E-16
-0.7308000E+00 -0.8022618E-16
-0.7302900E+00 -0.8186908E-16
-0.7297800E+00 -0.8354520E-16
-0.7292700E+00 -0.8525518E-16
-0.7287600E+00 -0.8699970E-16
-0.7282500E+00 -0.8877946E-16
-0.7277400E+00 -0.9059514E-16
-0.7272300E+00 -0.9244748E-16
-0.7267200E+00 -0.9433720E-16
-0.7262100E+00 -0.9626503E-16
-0.7257000E+00 -0.9823175E-16
-0.7251900E+00 -0.1002381E-15
-0.7246800E+00 -0.1022849E-15
-0.7241700E+00 -0.1043730E-15
-0.7236600E+00 -0.1065031E-15
-0.7231500E+00 -0.1086762E-15
-0.7226400E+00 -0.1108929E-15
-0.7221300E+00 -0.1131543E-15
-0.7216200E+00 -0.1154612E-15
-0.7211100E+00 -0.1178146E-15
-0.7206000E+00 -0.1202152E-15
-0.7200900E+00 -0.1226641E-15
-0.7195800E+00 -0.1251623E-15
-0.7190700E+00 -0.1277106E-15
-0.7185600E+00 -0.1303102E-15
-0.7180500E+00 -0.1329620E-15
-0.7175400E+00 -0.1356670E-15
-0.7170300E+00 -0.1384263E-15
-0.7165200E+00 -0.1412410E-15
-0.7160100E+00 -0.1441121E-15
-0.7155000E+00 -0.1470409E-15
-0.7149900E+00 -0.1500284E-15
-0.7144800E+00 -0.1530758E-15
-0.7139700E+00 -0.1561842E-15
-0.7134600E+00 -0.1593549E-15
-0.7129500E+00 -0.1625892E-15
-0.7124400E+00 -0.1658882E-15
-0.7119300E+00 -0.1692533E-15
-0.7114200E+00 -0.1726857E-15
-0.7109100E+00 -0.1761868E-15
-0.7104000E+00 -0.1797580E-15
-0.7098900E+00 -0.1834006E-15
-0.7093800E+00 -0.1871160E-15
-0.7088700E+00 -0.1909056E-15
-0.7083600E+00 -0.1947710E-15
-0.7078500E+00 -0.1987136E-15
-0.7073400E+00 -0.2027350E-15
-0.7068300E+00 -0.2068366E-15
-0.7063200E+00 -0.2110201E-15
-0.7058100E+00 -0.2152871E-15
-0.7053000E+00 -0.2196393E-15
-0.7047900E+00 -0.2240782E-15
-0.7042800E+00 -0.2286056E-15
-0.7037700E+00 -0.2332233E-15
-0.7032600E+00 -0.2379330E-15
-0.7027500E+00 -0.2427365E-15
-0.7022400E+00 -0.2476357E-15
-0.7017300E+00 -0.2526325E-15
-0.7012200E+00 -0.2577287E-15
-0.7007100E+00 -0.2629264E-15
-0.7002000E+00 -0.2682275E-15
-0.6996900E+00 -0.2736340E-15
-0.6991800E+00 -0.2791480E-15
-0.6986700E+00 -0.2847716E-15
-0.6981600E+00 -0.2905070E-15
-0.6976500E+00 -0.2963564E-15
-0.6971400E+00 -0.3023219E-15
-0.6966300E+00 -0.3084059E-15
-0.6961200E+00 -0.3146106E-15
-0.6956100E+00 -0.3209385E-15
-0.6951000E+00 -0.3273919E-15
-0.6945900E+00 -0.3339733E-15
-0.6940800E+00 -0.3406852E-15
-0.6935700E+00 -0.3475302E-15
-0.6930600E+00 -0.3545109E-15
-0.6925500E+00 -0.3616299E-15
-0.6920400E+00 -0.3688899E-15
-0.6915300E+00 -0.3762936E-15
-0.6910200E+00 -0.3838440E-15
-0.6905100E+00 -0.3915438E-15