-0.1200000E+01 -0.4044119E-10
-0.1199490E+01 -0.4111380E-10
-0.1198980E+01 -0.4179739E-10
-0.1198470E+01 -0.4249213E-10
-0.1197960E+01 -0.4319821E-10
-0.1197450E+01 -0.4391580E-10
-0.1196940E+01 -0.4464507E-10
-0.1196430E+01 -0.4538621E-10
-0.1195920E+01 -0.4613940E-10
-0.1195410E+01 -0.4690483E-10
-0.1194900E+01 -0.4768269E-10
-0.1194390E+01 -0.4847317E-10
-0.1193880E+01 -0.4927648E-10
-0.1193370E+01 -0.5009281E-10
-0.1192860E+01 -0.5092237E-10
-0.1192350E+01 -0.5176538E-10
-0.1191840E+01 -0.5262206E-10
-0.1191330E+01 -0.5349261E-10
-0.1190820E+01 -0.5437727E-10
-0.1190310E+01 -0.5527626E-10
-0.1189800E+01 -0.5618981E-10
-0.1189290E+01 -0.5711817E-10
-0.1188780E+01 -0.5806157E-10
-0.1188270E+01 -0.5902025E-10
-0.1187760E+01 -0.5999447E-10
-0.1187250E+01 -0.6098445E-10
-0.1186740E+01 -0.6199047E-10
-0.1186230E+01 -0.6301276E-10
-0.1185720E+01 -0.6405159E-10
-0.1185210E+01 -0.6510722E-10
-0.1184700E+01 -0.6617990E-10
-0.1184190E+01 -0.6726990E-10
-0.1183680E+01 -0.6837751E-10
-0.1183170E+01 -0.6950297E-10
-0.1182660E+01 -0.7064656E-10
-0.1182150E+01 -0.7180859E-10
-0.1181640E+01 -0.7298932E-10
-0.1181130E+01 -0.7418906E-10
-0.1180620E+01 -0.7540809E-10
-0.1180110E+01 -0.7664672E-10
-0.1179600E+01 -0.7790527E-10
-0.1179090E+01 -0.7918405E-10
-0.1178580E+01 -0.8048337E-10
-0.1178070E+01 -0.8180356E-10
-0.1177560E+01 -0.8314496E-10
-0.1177050E+01 -0.8450791E-10
-0.1176540E+01 -0.8589274E-10
-0.1176030E+01 -0.8729981E-10
-0.1175520E+01 -0.8872948E-10
-0.1175010E+01 -0.9018208E-10
-0.1174500E+01 -0.9165800E-10
-0.1173990E+01 -0.9315760E-10
-0.1173480E+01 -0.9468125E-10
-0.1172970E+01 -0.9622932E-10
-0.1172460E+01 -0.9780220E-10
-0.1171950E+01 -0.9940028E-10
-0.1171440E+01 -0.1010239E-09
-0.1170930E+01 -0.1026736E-09
-0.1170420E+01 -0.1043496E-09
-0.1169910E+01 -0.1060524E-09
-0.1169400E+01 -0.1077824E-09
-0.1168890E+01 -0.1095401E-09
-0.1168380E+01 -0.1113258E-09
-0.1167870E+01 -0.1131399E-09
-0.1167360E+01 -0.1149831E-09
-0.1166850E+01 -0.1168556E-09
-0.1166340E+01 -0.1187579E-09
-0.1165830E+01 -0.1206906E-09
-0.1165320E+01 -0.1226540E-09
-0.1164810E+01 -0.1246487E-09
-0.1164300E+01 -0.1266751E-09
-0.1163790E+01 -0.1287339E-09
-0.1163280E+01 -0.1308253E-09
-0.1162770E+01 -0.1329501E-09
-0.1162260E+01 -0.1351087E-09
-0.1161750E+01 -0.1373016E-09
-0.1161240E+01 -0.1395293E-09
-0.1160730E+01 -0.1417925E-09
-0.1160220E+01 -0.1440917E-09
-0.1159710E+01 -0.1464273E-09
-0.1159200E+01 -0.1488001E-09
-0.1158690E+01 -0.1512105E-09
-0.1158180E+01 -0.1536591E-09
-0.1157670E+01 -0.1561465E-09
-0.1157160E+01 -0.1586734E-09
-0.1156650E+01 -0.1612403E-09
-0.1156140E+01 -0.1638478E-09
-0.1155630E+01 -0.1664966E-09
-0.1155120E+01 -0.1691873E-09
-0.1154610E+01 -0.1719206E-09
-0.1154100E+01 -0.1746970E-09
-0.1153590E+01 -0.1775173E-09
-0.1153080E+01 -0.1803822E-09
-0.1152570E+01 -0.1832923E-09
-0.1152060E+01 -0.1862484E-09
-0.1151550E+01 -0.1892511E-09
-0.1151040E+01 -0.1923012E-09
-0.1150530E+01 -0.1953994E-09
-0.1150020E+01 -0.1985465E-09
-0.1149510E+01 -0.2017432E-09
-0.1149000E+01 -0.2049903E-09
-0.1148490E+01 -0.2082885E-09
-0.1147980E+01 -0.2116387E-09
-0.1147470E+01 -0.2150417E-09
-0.1146960E+01 -0.2184983E-09
-0.1146450E+01 -0.2220092E-09
-0.1145940E+01 -0.2255754E-09
-0.1145430E+01 -0.2291976E-09
-0.1144920E+01 -0.2328768E-09
-0.1144410E+01 -0.2366137E-09
-0.1143900E+01 -0.2404094E-09
-0.1143390E+01 -0.2442646E-09
-0.1142880E+01 -0.2481803E-09
-0.1142370E+01 -0.2521574E-09
-0.1141860E+01 -0.2561969E-09
-0.1141350E+01 -0.2602996E-09
-0.1140840E+01 -0.2644667E-09
-0.1140330E+01 -0.2686990E-09
-0.1139820E+01 -0.2729976E-09
-0.1139310E+01 -0.2773634E-09
-0.1138800E+01 -0.2817976E-09
-0.1138290E+01 -0.2863011E-09
-0.1137780E+01 -0.2908750E-09
-0.1137270E+01 -0.2955204E-09
-0.1136760E+01 -0.3002384E-09
-0.1136250E+01 -0.3050301E-09
-0.1135740E+01 -0.3098967E-09
-0.1135230E+01 -0.3148392E-09
-0.1134720E+01 -0.3198589E-09
-0.1134210E+01 -0.3249569E-09
-0.1133700E+01 -0.3301344E-09
-0.1133190E+01 -0.3353926E-09
-0.1132680E+01 -0.3407327E-09
-0.1132170E+01 -0.3461561E-09
-0.1131660E+01 -0.3516638E-09
-0.1131150E+01 -0.3572573E-09
-0.1130640E+01 -0.3629379E-09
-0.1130130E+01 -0.3687067E-09
-0.1129620E+01 -0.3745653E-09
-0.1129110E+01 -0.3805149E-09
-0.1128600E+01 -0.3865569E-09
-0.1128090E+01 -0.3926927E-09
-0.1127580E+01 -0.3989238E-09
-0.1127070E+01 -0.4052516E-09
-0.1126560E+01 -0.4116775E-09
-0.1126050E+01 -0.4182031E-09
-0.1125540E+01 -0.4248298E-09
-0.1125030E+01 -0.4315592E-09
-0.1124520E+01 -0.4383929E-09
-0.1124010E+01 -0.4453324E-09
-0.1123500E+01 -0.4523794E-09
-0.1122990E+01 -0.4595355E-09
-0.1122480E+01 -0.4668022E-09
-0.1121970E+01 -0.4741814E-09
-0.1121460E+01 -0.4816746E-09
-0.1120950E+01 -0.4892837E-09
-0.1120440E+01 -0.4970103E-09
-0.1119930E+01 -0.5048563E-09
-0.1119420E+01 -0.5128235E-09
-0.1118910E+01 -0.5209135E-09
-0.1118400E+01 -0.5291284E-09
-0.1117890E+01 -0.5374700E-09
-0.1117380E+01 -0.5459401E-09
-0.1116870E+01 -0.5545407E-09
-0.1116360E+01 -0.5632738E-09
-0.1115850E+01 -0.5721413E-09
-0.1115340E+01 -0.5811453E-09
-0.1114830E+01 -0.5902878E-09
-0.1114320E+01 -0.5995709E-09
-0.1113810E+01 -0.6089968E-09
-0.1113300E+01 -0.6185675E-09
-0.1112790E+01 -0.6282853E-09
-0.1112280E+01 -0.6381524E-09
-0.1111770E+01 -0.6481709E-09
-0.1111260E+01 -0.6583432E-09
-0.1110750E+01 -0.6686716E-09
-0.1110240E+01 -0.6791584E-09
-0.1109730E+01 -0.6898060E-09
-0.1109220E+01 -0.7006168E-09
-0.1108710E+01 -0.7115932E-09
-0.1108200E+01 -0.7227378E-09
-0.1107690E+01 -0.7340529E-09
-0.1107180E+01 -0.7455413E-09
-0.1106670E+01 -0.7572054E-09
-0.1106160E+01 -0.7690479E-09
-0.1105650E+01 -0.7810714E-09
-0.1105140E+01 -0.7932786E-09
-0.1104630E+01 -0.8056723E-09
-0.1104120E+01 -0.8182552E-09
-0.1103610E+01 -0.8310302E-09
-0.1103100E+01 -0.8440001E-09
-0.1102590E+01 -0.8571679E-09
-0.1102080E+01 -0.8705364E-09
-0.1101570E+01 -0.8841086E-09
-0.1101060E+01 -0.8978877E-09
-0.1100550E+01 -0.9118765E-09
-0.1100040E+01 -0.9260784E-09
-0.1099530E+01 -0.9404965E-09
-0.1099020E+01 -0.9551339E-09
-0.1098510E+01 -0.9699939E-09
-0.1098000E+01 -0.9850798E-09
-0.1097490E+01 -0.1000395E-08
-0.1096980E+01 -0.1015943E-08
-0.1096470E+01 -0.1031727E-08
-0.1095960E+01 -0.1047751E-08
-0.1095450E+01 -0.1064018E-08
-0.1094940E+01 -0.1080532E-08
-0.1094430E+01 -0.1097296E-08
-0.1093920E+01 -0.1114314E-08
-0.1093410E+01 -0.1131590E-08
-0.1092900E+01 -0.1149128E-08
-0.1092390E+01 -0.1166932E-08
-0.1091880E+01 -0.1185005E-08
-0.1091370E+01 -0.1203351E-08
-0.1090860E+01 -0.1221975E-08
-0.1090350E+01 -0.1240881E-08
-0.1089840E+01 -0.1260072E-08
-0.1089330E+01 -0.1279553E-08
-0.1088820E+01 -0.1299328E-08
-0.1088310E+01 -0.1319402E-08
-0.1087800E+01 -0.1339779E-08
-0.1087290E+01 -0.1360463E-08
-0.1086780E+01 -0.1381460E-08
-0.1086270E+01 -0.1402772E-08
-0.1085760E+01 -0.1424406E-08
-0.1085250E+01 -0.1446366E-08
-0.1084740E+01 -0.1468656E-08
-0.1084230E+01 -0.1491282E-08
-0.1083720E+01 -0.1514249E-08
-0.1083210E+01 -0.1537561E-08
-0.1082700E+01 -0.1561223E-08
-0.1082190E+01 -0.1585241E-08
-0.1081680E+01 -0.1609621E-08
-0.1081170E+01 -0.1634366E-08
-0.1080660E+01 -0.1659483E-08
-0.1080150E+01 -0.1684977E-08
-0.1079640E+01 -0.1710853E-08
-0.1079130E+01 -0.1737117E-08
-0.1078620E+01 -0.1763776E-08
-0.1078110E+01 -0.1790833E-08
-0.1077600E+01 -0.1818296E-08
-0.1077090E+01 -0.1846171E-08
-0.1076580E+01 -0.1874462E-08
-0.1076070E+01 -0.1903177E-08
-0.1075560E+01 -0.1932322E-08
-0.1075050E+01 -0.1961902E-08
-0.1074540E+01 -0.1991924E-08
-0.1074030E+01 -0.2022395E-08
-0.1073520E+01 -0.2053322E-08
-0.1073010E+01 -0.2084709E-08
-0.1072500E+01 -0.2116566E-08
-0.1071990E+01 -0.2148897E-08
-0.1071480E+01 -0.2181711E-08
-0.1070970E+01 -0.2215014E-08
-0.1070460E+01 -0.2248813E-08
-0.1069950E+01 -0.2283116E-08
-0.1069440E+01 -0.2317929E-08
-0.1068930E+01 -0.2353261E-08
-0.1068420E+01 -0.2389118E-08
-0.1067910E+01 -0.2425509E-08
-0.1067400E+01 -0.2462441E-08
-0.1066890E+01 -0.2499922E-08
-0.1066380E+01 -0.2537960E-08
-0.1065870E+01 -0.2576563E-08
-0.1065360E+01 -0.2615739E-08
-0.1064850E+01 -0.2655496E-08
-0.1064340E+01 -0.2695844E-08
-0.1063830E+01 -0.2736789E-08
-0.1063320E+01 -0.2778342E-08
-0.1062810E+01 -0.2820510E-08
-0.1062300E+01 -0.2863303E-08
-0.1061790E+01 -0.2906730E-08
-0.1061280E+01 -0.2950800E-08
-0.1060770E+01 -0.2995522E-08
-0.1060260E+01 -0.3040905E-08
-0.1059750E+01 -0.3086959E-08
-0.1059240E+01 -0.3133694E-08
-0.1058730E+01 -0.3181119E-08
-0.1058220E+01 -0.3229245E-08
-0.1057710E+01 -0.3278081E-08
-0.1057200E+01 -0.3327638E-08
-0.1056690E+01 -0.3377926E-08
-0.1056180E+01 -0.3428956E-08
-0.1055670E+01 -0.3480737E-08
-0.1055160E+01 -0.3533282E-08
-0.1054650E+01 -0.3586601E-08
-0.1054140E+01 -0.3640705E-08
-0.1053630E+01 -0.3695605E-08
-0.1053120E+01 -0.3751313E-08
-0.1052610E+01 -0.3807840E-08
-0.1052100E+01 -0.3865199E-08
-0.1051590E+01 -0.3923400E-08
-0.1051080E+01 -0.3982457E-08
-0.1050570E+01 -0.4042381E-08
-0.1050060E+01 -0.4103184E-08
-0.1049550E+01 -0.4164880E-08
-0.1049040E+01 -0.4227481E-08
-0.1048530E+01 -0.4290999E-08
-0.1048020E+01 -0.4355449E-08
-0.1047510E+01 -0.4420843E-08
-0.1047000E+01 -0.4487195E-08
-0.1046490E+01 -0.4554518E-08
-0.1045980E+01 -0.4622826E-08
-0.1045470E+01 -0.4692133E-08
-0.1044960E+01 -0.4762454E-08
-0.1044450E+01 -0.4833803E-08
-0.1043940E+01 -0.4906194E-08
-0.1043430E+01 -0.4979643E-08
-0.1042920E+01 -0.5054164E-08
-0.1042410E+01 -0.5129773E-08
-0.1041900E+01 -0.5206485E-08
-0.1041390E+01 -0.5284317E-08
-0.1040880E+01 -0.5363282E-08
-0.1040370E+01 -0.5443399E-08
-0.1039860E+01 -0.5524683E-08
-0.1039350E+01 -0.5607150E-08
-0.1038840E+01 -0.5690818E-08
-0.1038330E+01 -0.5775704E-08
-0.1037820E+01 -0.5861824E-08
-0.1037310E+01 -0.5949197E-08
-0.1036800E+01 -0.6037839E-08
-0.1036290E+01 -0.6127769E-08
-0.1035780E+01 -0.6219006E-08
-0.1035270E+01 -0.6311566E-08
-0.1034760E+01 -0.6405470E-08
-0.1034250E+01 -0.6500736E-08
-0.1033740E+01 -0.6597384E-08
-0.1033230E+01 -0.6695432E-08
-0.1032720E+01 -0.6794901E-08
-0.1032210E+01 -0.6895810E-08
-0.1031700E+01 -0.6998181E-08
-0.1031190E+01 -0.7102033E-08
-0.1030680E+01 -0.7207387E-08
-0.1030170E+01 -0.7314265E-08
-0.1029660E+01 -0.7422688E-08
-0.1029150E+01 -0.7532678E-08
-0.1028640E+01 -0.7644256E-08
-0.1028130E+01 -0.7757445E-08
-0.1027620E+01 -0.7872269E-08
-0.1027110E+01 -0.7988749E-08
-0.1026600E+01 -0.8106909E-08
-0.1026090E+01 -0.8226772E-08
-0.1025580E+01 -0.8348363E-08
-0.1025070E+01 -0.8471705E-08
-0.1024560E+01 -0.8596824E-08
-0.1024050E+01 -0.8723744E-08
-0.1023540E+01 -0.8852489E-08
-0.1023030E+01 -0.8983088E-08
-0.1022520E+01 -0.9115564E-08
-0.1022010E+01 -0.9249944E-08
-0.1021500E+01 -0.9386254E-08
-0.1020990E+01 -0.9524523E-08
-0.1020480E+01 -0.9664775E-08
-0.1019970E+01 -0.9807040E-08
-0.1019460E+01 -0.9951346E-08
-0.1018950E+01 -0.1009772E-07
-0.1018440E+01 -0.1024619E-07
-0.1017930E+01 -0.1039679E-07
-0.1017420E+01 -0.1054955E-07
-0.1016910E+01 -0.1070449E-07
-0.1016400E+01 -0.1086165E-07
-0.1015890E+01 -0.1102106E-07
-0.1015380E+01 -0.1118275E-07
-0.1014870E+01 -0.1134675E-07
-0.1014360E+01 -0.1151309E-07
-0.1013850E+01 -0.1168181E-07
-0.1013340E+01 -0.1185294E-07
-0.1012830E+01 -0.1202651E-07
-0.1012320E+01 -0.1220256E-07
-0.1011810E+01 -0.1238111E-07
-0.1011300E+01 -0.1256221E-07
-0.1010790E+01 -0.1274590E-07
-0.1010280E+01 -0.1293220E-07
-0.1009770E+01 -0.1312115E-07
-0.1009260E+01 -0.1331279E-07
-0.1008750E+01 -0.1350715E-07
-0.1008240E+01 -0.1370428E-07
-0.1007730E+01 -0.1390422E-07
-0.1007220E+01 -0.1410699E-07
-0.1006710E+01 -0.1431264E-07
-0.1006200E+01 -0.1452121E-07
-0.1005690E+01 -0.1473275E-07
-0.1005180E+01 -0.1494728E-07
-0.1004670E+01 -0.1516486E-07
-0.1004160E+01 -0.1538552E-07
-0.1003650E+01 -0.1560930E-07
-0.1003140E+01 -0.1583626E-07
-0.1002630E+01 -0.1606643E-07
-0.1002120E+01 -0.1629986E-07
-0.1001610E+01 -0.1653659E-07
-0.1001100E+01 -0.1677667E-07
-0.1000590E+01 -0.1702015E-07
-0.1000080E+01 -0.1726706E-07
-0.9995700E+00 -0.1751746E-07
-0.9990600E+00 -0.1777140E-07
-0.9985500E+00 -0.1802892E-07
-0.9980400E+00 -0.1829008E-07
-0.9975300E+00 -0.1855492E-07
-0.9970200E+00 -0.1882349E-07
-0.9965100E+00 -0.1909584E-07
-0.9960000E+00 -0.1937204E-07
-0.9954900E+00 -0.1965212E-07
-0.9949800E+00 -0.1993614E-07
-0.9944700E+00 -0.2022416E-07
-0.9939600E+00 -0.2051623E-07
-0.9934500E+00 -0.2081241E-07
-0.9929400E+00 -0.2111275E-07
-0.9924300E+00 -0.2141730E-07
-0.9919200E+00 -0.2172614E-07
-0.9914100E+00 -0.2203930E-07
-0.9909000E+00 -0.2235686E-07
-0.9903900E+00 -0.2267888E-07
-0.9898800E+00 -0.2300541E-07
-0.9893700E+00 -0.2333651E-07
-0.9888600E+00 -0.2367226E-07
-0.9883500E+00 -0.2401270E-07
-0.9878400E+00 -0.2435791E-07
-0.9873300E+00 -0.2470795E-07
-0.9868200E+00 -0.2506289E-07
-0.9863100E+00 -0.2542278E-07
-0.9858000E+00 -0.2578770E-07
-0.9852900E+00 -0.2615772E-07
-0.9847800E+00 -0.2653291E-07
-0.9842700E+00 -0.2691334E-07
-0.9837600E+00 -0.2729907E-07
-0.9832500E+00 -0.2769018E-07
-0.9827400E+00 -0.2808674E-07
-0.9822300E+00 -0.2848883E-07
-0.9817200E+00 -0.2889651E-07
-0.9812100E+00 -0.2930988E-07
-0.9807000E+00 -0.2972900E-07
-0.9801900E+00 -0.3015395E-07
-0.9796800E+00 -0.3058481E-07
-0.9791700E+00 -0.3102166E-07
-0.9786600E+00 -0.3146457E-07
-0.9781500E+00 -0.3191364E-07
-0.9776400E+00 -0.3236895E-07
-0.9771300E+00 -0.3283057E-07
-0.9766200E+00 -0.3329860E-07
-0.9761100E+00 -0.3377312E-07
-0.9756000E+00 -0.3425421E-07
-0.9750900E+00 -0.3474197E-07
-0.9745800E+00 -0.3523649E-07
-0.9740700E+00 -0.3573785E-07
-0.9735600E+00 -0.3624615E-07
-0.9730500E+00 -0.3676148E-07
-0.9725400E+00 -0.3728394E-07
-0.9720300E+00 -0.3781362E-07
-0.9715200E+00 -0.3835062E-07
-0.9710100E+00 -0.3889503E-07
-0.9705000E+00 -0.3944696E-07
-0.9699900E+00 -0.4000651E-07
-0.9694800E+00 -0.4057377E-07
-0.9689700E+00 -0.4114885E-07
-0.9684600E+00 -0.4173187E-07
-0.9679500E+00 -0.4232291E-07
-0.9674400E+00 -0.4292209E-07
-0.9669300E+00 -0.4352952E-07
-0.9664200E+00 -0.4414531E-07
-0.9659100E+00 -0.4476957E-07
-0.9654000E+00 -0.4540241E-07
-0.9648900E+00 -0.4604395E-07
-0.9643800E+00 -0.4669431E-07
-0.9638700E+00 -0.4735359E-07
-0.9633600E+00 -0.4802193E-07
-0.9628500E+00 -0.4869943E-07
-0.9623400E+00 -0.4938623E-07
-0.9618300E+00 -0.5008244E-07
-0.9613200E+00 -0.5078819E-07
-0.9608100E+00 -0.5150362E-07
-0.9603000E+00 -0.5222883E-07
-0.9597900E+00 -0.5296397E-07
-0.9592800E+00 -0.5370917E-07
-0.9587700E+00 -0.5446456E-07
-0.9582600E+00 -0.5523028E-07
-0.9577500E+00 -0.5600646E-07
-0.9572400E+00 -0.5679324E-07
-0.9567300E+00 -0.5759076E-07
-0.9562200E+00 -0.5839917E-07
-0.9557100E+00 -0.5921861E-07
-0.9552000E+00 -0.6004922E-07
-0.9546900E+00 -0.6089115E-07
-0.9541800E+00 -0.6174454E-07
-0.9536700E+00 -0.6260957E-07
-0.9531600E+00 -0.6348636E-07
-0.9526500E+00 -0.6437509E-07
-0.9521400E+00 -0.6527591E-07
-0.9516300E+00 -0.6618897E-07
-0.9511200E+00 -0.6711444E-07
-0.9506100E+00 -0.6805249E-07
-0.9501000E+00 -0.6900327E-07
-0.9495900E+00 -0.6996696E-07
-0.9490800E+00 -0.7094373E-07
-0.9485700E+00 -0.7193374E-07
-0.9480600E+00 -0.7293718E-07
-0.9475500E+00 -0.7395421E-07
-0.9470400E+00 -0.7498502E-07
-0.9465300E+00 -0.7602979E-07
-0.9460200E+00 -0.7708870E-07
-0.9455100E+00 -0.7816194E-07
-0.9450000E+00 -0.7924969E-07
-0.9444900E+00 -0.8035214E-07
-0.9439800E+00 -0.8146949E-07
-0.9434700E+00 -0.8260193E-07
-0.9429600E+00 -0.8374965E-07
-0.9424500E+00 -0.8491287E-07
-0.9419400E+00 -0.8609177E-07
-0.9414300E+00 -0.8728657E-07
-0.9409200E+00 -0.8849748E-07
-0.9404100E+00 -0.8972470E-07
-0.9399000E+00 -0.9096844E-07
-0.9393900E+00 -0.9222893E-07
-0.9388800E+00 -0.9350638E-07
-0.9383700E+00 -0.9480101E-07
-0.9378600E+00 -0.9611304E-07
-0.9373500E+00 -0.9744271E-07
-0.9368400E+00 -0.9879024E-07
-0.9363300E+00 -0.1001559E-06
-0.9358200E+00 -0.1015398E-06
-0.9353100E+00 -0.1029423E-06
-0.9348000E+00 -0.1043637E-06
-0.9342900E+00 -0.1058040E-06
-0.9337800E+00 -0.1072637E-06
-0.9332700E+00 -0.1087429E-06
-0.9327600E+00 -0.1102420E-06
-0.9322500E+00 -0.1117611E-06
-0.9317400E+00 -0.1133005E-06
-0.9312300E+00 -0.1148605E-06
-0.9307200E+00 -0.1164413E-06
-0.9302100E+00 -0.1180433E-06
-0.9297000E+00 -0.1196666E-06
-0.9291900E+00 -0.1213117E-06
-0.9286800E+00 -0.1229786E-06
-0.9281700E+00 -0.1246678E-06
-0.9276600E+00 -0.1263796E-06
-0.9271500E+00 -0.1281141E-06
-0.9266400E+00 -0.1298717E-06
-0.9261300E+00 -0.1316528E-06
-0.9256200E+00 -0.1334575E-06
-0.9251100E+00 -0.1352863E-06
-0.9246000E+00 -0.1371393E-06
-0.9240900E+00 -0.1390170E-06
-0.9235800E+00 -0.1409197E-06
-0.9230700E+00 -0.1428476E-06
-0.9225600E+00 -0.1448011E-06
-0.9220500E+00 -0.1467805E-06
-0.9215400E+00 -0.1487861E-06
-0.9210300E+00 -0.1508184E-06
-0.9205200E+00 -0.1528776E-06
-0.9200100E+00 -0.1549640E-06
-0.9195000E+00 -0.1570781E-06
-0.9189900E+00 -0.1592202E-06
-0.9184800E+00 -0.1613906E-06
-0.9179700E+00 -0.1635898E-06
-0.9174600E+00 -0.1658180E-06
-0.9169500E+00 -0.1680756E-06
-0.9164400E+00 -0.1703630E-06
-0.9159300E+00 -0.1726807E-06
-0.9154200E+00 -0.1750289E-06
-0.9149100E+00 -0.1774081E-06
-0.9144000E+00 -0.1798187E-06
-0.9138900E+00 -0.1822610E-06
-0.9133800E+00 -0.1847355E-06
-0.9128700E+00 -0.1872426E-06
-0.9123600E+00 -0.1897827E-06
-0.9118500E+00 -0.1923562E-06
-0.9113400E+00 -0.1949635E-06
-0.9108300E+00 -0.1976051E-06
-0.9103200E+00 -0.2002814E-06
-0.9098100E+00 -0.2029929E-06
-0.9093000E+00 -0.2057399E-06
-0.9087900E+00 -0.2085230E-06
-0.9082800E+00 -0.2113426E-06
-0.9077700E+00 -0.2141992E-06
-0.9072600E+00 -0.2170932E-06
-0.9067500E+00 -0.2200251E-06
-0.9062400E+00 -0.2229954E-06
-0.9057300E+00 -0.2260046E-06
-0.9052200E+00 -0.2290532E-06
-0.9047100E+00 -0.2321416E-06
-0.9042000E+00 -0.2352703E-06
-0.9036900E+00 -0.2384400E-06
-0.9031800E+00 -0.2416510E-06
-0.9026700E+00 -0.2449040E-06
-0.9021600E+00 -0.2481993E-06
-0.9016500E+00 -0.2515377E-06
-0.9011400E+00 -0.2549196E-06
-0.9006300E+00 -0.2583455E-06
-0.9001200E+00 -0.2618160E-06
-0.8996100E+00 -0.2653318E-06
-0.8991000E+00 -0.2688933E-06
-0.8985900E+00 -0.2725011E-06
-0.8980800E+00 -0.2761558E-06
-0.8975700E+00 -0.2798581E-06
-0.8970600E+00 -0.2836084E-06
-0.8965500E+00 -0.2874075E-06
-0.8960400E+00 -0.2912559E-06
-0.8955300E+00 -0.2951542E-06
-0.8950200E+00 -0.2991031E-06
-0.8945100E+00 -0.3031032E-06
-0.8940000E+00 -0.3071551E-06
-0.8934900E+00 -0.3112595E-06
-0.8929800E+00 -0.3154170E-06
-0.8924700E+00 -0.3196283E-06
-0.8919600E+00 -0.3238940E-06
-0.8914500E+00 -0.3282149E-06
-0.8909400E+00 -0.3325917E-06
-0.8904300E+00 -0.3370249E-06
-0.8899200E+00 -0.3415154E-06
-0.8894100E+00 -0.3460639E-06
-0.8889000E+00 -0.3506710E-06
-0.8883900E+00 -0.3553375E-06
-0.8878800E+00 -0.3600641E-06
-0.8873700E+00 -0.3648517E-06
-0.8868600E+00 -0.3697009E-06
-0.8863500E+00 -0.3746125E-06
-0.8858400E+00 -0.3795874E-06
-0.8853300E+00 -0.3846262E-06
-0.8848200E+00 -0.3897298E-06
-0.8843100E+00 -0.3948990E-06
-0.8838000E+00 -0.4001346E-06
-0.8832900E+00 -0.4054374E-06
-0.8827800E+00 -0.4108083E-06
-0.8822700E+00 -0.4162480E-06
-0.8817600E+00 -0.4217575E-06
-0.8812500E+00 -0.4273376E-06
-0.8807400E+00 -0.4329892E-06
-0.8802300E+00 -0.4387131E-06
-0.8797200E+00 -0.4445103E-06
-0.8792100E+00 -0.4503816E-06
-0.8787000E+00 -0.4563279E-06
-0.8781900E+00 -0.4623503E-06
-0.8776800E+00 -0.4684496E-06
-0.8771700E+00 -0.4746267E-06
-0.8766600E+00 -0.4808827E-06
-0.8761500E+00 -0.4872185E-06
-0.8756400E+00 -0.4936351E-06
-0.8751300E+00 -0.5001335E-06
-0.8746200E+00 -0.5067147E-06
-0.8741100E+00 -0.5133798E-06
-0.8736000E+00 -0.5201297E-06
-0.8730900E+00 -0.5269654E-06
-0.8725800E+00 -0.5338882E-06
-0.8720700E+00 -0.5408989E-06
-0.8715600E+00 -0.5479988E-06
-0.8710500E+00 -0.5551888E-06
-0.8705400E+00 -0.5624701E-06
-0.8700300E+00 -0.5698437E-06
-0.8695200E+00 -0.5773109E-06
-0.8690100E+00 -0.5848727E-06
-0.8685000E+00 -0.5925304E-06
-0.8679900E+00 -0.6002850E-06
-0.8674800E+00 -0.6081378E-06
-0.8669700E+00 -0.6160900E-06
-0.8664600E+00 -0.6241428E-06
-0.8659500E+00 -0.6322974E-06
-0.8654400E+00 -0.6405550E-06
-0.8649300E+00 -0.6489170E-06
-0.8644200E+00 -0.6573845E-06
-0.8639100E+00 -0.6659590E-06
-0.8634000E+00 -0.6746416E-06
-0.8628900E+00 -0.6834337E-06
-0.8623800E+00 -0.6923366E-06
-0.8618700E+00 -0.7013517E-06
-0.8613600E+00 -0.7104803E-06
-0.8608500E+00 -0.7197238E-06
-0.8603400E+00 -0.7290836E-06
-0.8598300E+00 -0.7385612E-06
-0.8593200E+00 -0.7481579E-06
-0.8588100E+00 -0.7578752E-06
-0.8583000E+00 -0.7677146E-06
-0.8577900E+00 -0.7776774E-06
-0.8572800E+00 -0.7877653E-06
-0.8567700E+00 -0.7979796E-06
-0.8562600E+00 -0.8083220E-06
-0.8557500E+00 -0.8187940E-06
-0.8552400E+00 -0.8293971E-06
-0.8547300E+00 -0.8401329E-06
-0.8542200E+00 -0.8510031E-06
-0.8537100E+00 -0.8620092E-06
-0.8532000E+00 -0.8731529E-06
-0.8526900E+00 -0.8844358E-06
-0.8521800E+00 -0.8958597E-06
-0.8516700E+00 -0.9074262E-06
-0.8511600E+00 -0.9191371E-06
-0.8506500E+00 -0.9309939E-06
-0.8501400E+00 -0.9429986E-06
-0.8496300E+00 -0.9551529E-06
-0.8491200E+00 -0.9674586E-06
-0.8486100E+00 -0.9799176E-06
-0.8481000E+00 -0.9925316E-06
-0.8475900E+00 -0.1005302E-05
-0.8470800E+00 -0.1018232E-05
-0.8465700E+00 -0.1031322E-05
-0.8460600E+00 -0.1044575E-05
-0.8455500E+00 -0.1057993E-05
-0.8450400E+00 -0.1071577E-05
-0.8445300E+00 -0.1085329E-05
-0.8440200E+00 -0.1099252E-05
-0.8435100E+00 -0.1113348E-05
-0.8430000E+00 -0.1127618E-05
-0.8424900E+00 -0.1142065E-05
-0.8419800E+00 -0.1156690E-05
-0.8414700E+00 -0.1171496E-05
-0.8409600E+00 -0.1186486E-05
-0.8404500E+00 -0.1201661E-05
-0.8399400E+00 -0.1217023E-05
-0.8394300E+00 -0.1232575E-05
-0.8389200E+00 -0.1248318E-05
-0.8384100E+00 -0.1264256E-05
-0.8379000E+00 -0.1280391E-05
-0.8373900E+00 -0.1296724E-05
-0.8368800E+00 -0.1313259E-05
-0.8363700E+00 -0.1329997E-05
-0.8358600E+00 -0.1346941E-05
-0.8353500E+00 -0.1364094E-05
-0.8348400E+00 -0.1381457E-05
-0.8343300E+00 -0.1399034E-05
-0.8338200E+00 -0.1416827E-05
-0.8333100E+00 -0.1434838E-05
-0.8328000E+00 -0.1453071E-05
-0.8322900E+00 -0.1471527E-05
-0.8317800E+00 -0.1490209E-05
-0.8312700E+00 -0.1509120E-05
-0.8307600E+00 -0.1528263E-05
-0.8302500E+00 -0.1547640E-05
-0.8297400E+00 -0.1567254E-05
-0.8292300E+00 -0.1587108E-05
-0.8287200E+00 -0.1607205E-05
-0.8282100E+00 -0.1627548E-05
-0.8277000E+00 -0.1648139E-05
-0.8271900E+00 -0.1668981E-05
-0.8266800E+00 -0.1690078E-05
-0.8261700E+00 -0.1711432E-05
-0.8256600E+00 -0.1733047E-05
-0.8251500E+00 -0.1754925E-05
-0.8246400E+00 -0.1777069E-05
-0.8241300E+00 -0.1799483E-05
-0.8236200E+00 -0.1822170E-05
-0.8231100E+00 -0.1845133E-05
-0.8226000E+00 -0.1868375E-05
-0.8220900E+00 -0.1891900E-05
-0.8215800E+00 -0.1915710E-05
-0.8210700E+00 -0.1939809E-05
-0.8205600E+00 -0.1964201E-05
-0.8200500E+00 -0.1988888E-05
-0.8195400E+00 -0.2013875E-05
-0.8190300E+00 -0.2039165E-05
-0.8185200E+00 -0.2064761E-05
-0.8180100E+00 -0.2090667E-05
-0.8175000E+00 -0.2116886E-05
-0.8169900E+00 -0.2143423E-05
-0.8164800E+00 -0.2170280E-05
-0.8159700E+00 -0.2197461E-05
-0.8154600E+00 -0.2224971E-05
-0.8149500E+00 -0.2252813E-05
-0.8144400E+00 -0.2280991E-05
-0.8139300E+00 -0.2309509E-05
-0.8134200E+00 -0.2338370E-05
-0.8129100E+00 -0.2367580E-05
-0.8124000E+00 -0.2397141E-05
-0.8118900E+00 -0.2427058E-05
-0.8113800E+00 -0.2457334E-05
-0.8108700E+00 -0.2487975E-05
-0.8103600E+00 -0.2518985E-05
-0.8098500E+00 -0.2550366E-05
-0.8093400E+00 -0.2582125E-05
-0.8088300E+00 -0.2614264E-05
-0.8083200E+00 -0.2646790E-05
-0.8078100E+00 -0.2679705E-05
-0.8073000E+00 -0.2713015E-05
-0.8067900E+00 -0.2746724E-05
-0.8062800E+00 -0.2780836E-05
-0.8057700E+00 -0.2815357E-05
-0.8052600E+00 -0.2850290E-05
-0.8047500E+00 -0.2885642E-05
-0.8042400E+00 -0.2921416E-05
-0.8037300E+00 -0.2957618E-05
-0.8032200E+00 -0.2994251E-05
-0.8027100E+00 -0.3031322E-05
-0.8022000E+00 -0.3068835E-05
-0.8016900E+00 -0.3106795E-05
-0.8011800E+00 -0.3145208E-05
-0.8006700E+00 -0.3184078E-05
-0.8001600E+00 -0.3223411E-05
-0.7996500E+00 -0.3263212E-05
-0.7991400E+00 -0.3303486E-05
-0.7986300E+00 -0.3344239E-05
-0.7981200E+00 -0.3385476E-05
-0.7976100E+00 -0.3427203E-05
-0.7971000E+00 -0.3469425E-05
-0.7965900E+00 -0.3512148E-05
-0.7960800E+00 -0.3555378E-05
-0.7955700E+00 -0.3599120E-05
-0.7950600E+00 -0.3643380E-05
-0.7945500E+00 -0.3688164E-05
-0.7940400E+00 -0.3733478E-05
-0.7935300E+00 -0.3779329E-05
-0.7930200E+00 -0.3825721E-05
-0.7925100E+00 -0.3872662E-05
-0.7920000E+00 -0.3920158E-05
-0.7914900E+00 -0.3968214E-05
-0.7909800E+00 -0.4016837E-05
-0.7904700E+00 -0.4066034E-05
-0.7899600E+00 -0.4115811E-05
-0.7894500E+00 -0.4166174E-05
-0.7889400E+00 -0.4217130E-05
-0.7884300E+00 -0.4268687E-05
-0.7879200E+00 -0.4320849E-05
-0.7874100E+00 -0.4373625E-05
-0.7869000E+00 -0.4427022E-05
-0.7863900E+00 -0.4481046E-05
-0.7858800E+00 -0.4535705E-05
-0.7853700E+00 -0.4591005E-05
-0.7848600E+00 -0.4646954E-05
-0.7843500E+00 -0.4703559E-05
-0.7838400E+00 -0.4760827E-05
-0.7833300E+00 -0.4818767E-05
-0.7828200E+00 -0.4877385E-05
-0.7823100E+00 -0.4936689E-05
-0.7818000E+00 -0.4996686E-05
-0.7812900E+00 -0.5057385E-05
-0.7807800E+00 -0.5118794E-05
-0.7802700E+00 -0.5180920E-05
-0.7797600E+00 -0.5243770E-05
-0.7792500E+00 -0.5307355E-05
-0.7787400E+00 -0.5371680E-05
-0.7782300E+00 -0.5436755E-05
-0.7777200E+00 -0.5502588E-05
-0.7772100E+00 -0.5569188E-05
-0.7767000E+00 -0.5636563E-05
-0.7761900E+00 -0.5704721E-05
-0.7756800E+00 -0.5773672E-05
-0.7751700E+00 -0.5843425E-05
-0.7746600E+00 -0.5913987E-05
-0.7741500E+00 -0.5985370E-05
-0.7736400E+00 -0.6057580E-05
-0.7731300E+00 -0.6130628E-05
-0.7726200E+00 -0.6204523E-05
-0.7721100E+00 -0.6279274E-05
-0.7716000E+00 -0.6354891E-05
-0.7710900E+00 -0.6431384E-05
-0.7705800E+00 -0.6508762E-05
-0.7700700E+00 -0.6587034E-05
-0.7695600E+00 -0.6666211E-05
-0.7690500E+00 -0.6746303E-05
-0.7685400E+00 -0.6827319E-05
-0.7680300E+00 -0.6909271E-05
-0.7675200E+00 -0.6992168E-05
-0.7670100E+00 -0.7076020E-05
-0.7665000E+00 -0.7160839E-05
-0.7659900E+00 -0.7246635E-05
-0.7654800E+00 -0.7333419E-05
-0.7649700E+00 -0.7421200E-05
-0.7644600E+00 -0.7509992E-05
-0.7639500E+00 -0.7599803E-05
-0.7634400E+00 -0.7690647E-05
-0.7629300E+00 -0.7782534E-05
-0.7624200E+00 -0.7875476E-05
-0.7619100E+00 -0.7969483E-05
-0.7614000E+00 -0.8064568E-05
-0.7608900E+00 -0.8160743E-05
-0.7603800E+00 -0.8258020E-05
-0.7598700E+00 -0.8356410E-05
-0.7593600E+00 -0.8455926E-05
-0.7588500E+00 -0.8556581E-05
-0.7583400E+00 -0.8658386E-05
-0.7578300E+00 -0.8761354E-05
-0.7573200E+00 -0.8865499E-05
-0.7568100E+00 -0.8970832E-05
-0.7563000E+00 -0.9077366E-05
-0.7557900E+00 -0.9185115E-05
-0.7552800E+00 -0.9294092E-05
-0.7547700E+00 -0.9404310E-05
-0.7542600E+00 -0.9515782E-05
-0.7537500E+00 -0.9628522E-05
-0.7532400E+00 -0.9742545E-05
-0.7527300E+00 -0.9857863E-05
-0.7522200E+00 -0.9974491E-05
-0.7517100E+00 -0.1009244E-04
-0.7512000E+00 -0.1021173E-04
-0.7506900E+00 -0.1033238E-04
-0.7501800E+00 -0.1045439E-04
-0.7496700E+00 -0.1057779E-04
-0.7491600E+00 -0.1070258E-04
-0.7486500E+00 -0.1082878E-04
-0.7481400E+00 -0.1095642E-04
-0.7476300E+00 -0.1108550E-04
-0.7471200E+00 -0.1121603E-04
-0.7466100E+00 -0.1134804E-04
-0.7461000E+00 -0.1148155E-04
-0.7455900E+00 -0.1161656E-04
-0.7450800E+00 -0.1175309E-04
-0.7445700E+00 -0.1189116E-04
-0.7440600E+00 -0.1203079E-04
-0.7435500E+00 -0.1217199E-04
-0.7430400E+00 -0.1231478E-04
-0.7425300E+00 -0.1245917E-04
-0.7420200E+00 -0.1260519E-04
-0.7415100E+00 -0.1275285E-04
-0.7410000E+00 -0.1290217E-04
-0.7404900E+00 -0.1305316E-04
-0.7399800E+00 -0.1320585E-04
-0.7394700E+00 -0.1336025E-04
-0.7389600E+00 -0.1351638E-04
-0.7384500E+00 -0.1367426E-04
-0.7379400E+00 -0.1383391E-04
-0.7374300E+00 -0.1399535E-04
-0.7369200E+00 -0.1415859E-04
-0.7364100E+00 -0.1432365E-04
-0.7359000E+00 -0.1449056E-04
-0.7353900E+00 -0.1465934E-04
-0.7348800E+00 -0.1483000E-04
-0.7343700E+00 -0.1500256E-04
-0.7338600E+00 -0.1517705E-04
-0.7333500E+00 -0.1535348E-04
-0.7328400E+00 -0.1553188E-04
-0.7323300E+00 -0.1571227E-04
-0.7318200E+00 -0.1589466E-04
-0.7313100E+00 -0.1607908E-04
-0.7308000E+00 -0.1626556E-04
-0.7302900E+00 -0.1645410E-04
-0.7297800E+00 -0.1664473E-04
-0.7292700E+00 -0.1683748E-04
-0.7287600E+00 -0.1703237E-04
-0.7282500E+00 -0.1722942E-04
-0.7277400E+00 -0.1742866E-04
-0.7272300E+00 -0.1763010E-04
-0.7267200E+00 -0.1783377E-04
-0.7262100E+00 -0.1803969E-04
-0.7257000E+00 -0.1824789E-04
-0.7251900E+00 -0.1845838E-04
-0.7246800E+00 -0.1867121E-04
-0.7241700E+00 -0.1888639E-04
-0.7236600E+00 -0.1910393E-04
-0.7231500E+00 -0.1932388E-04
-0.7226400E+00 -0.1954626E-04
-0.7221300E+00 -0.1977109E-04
-0.7216200E+00 -0.1999839E-04
-0.7211100E+00 -0.2022819E-04
-0.7206000E+00 -0.2046052E-04
-0.7200900E+00 -0.2069541E-04
-0.7195800E+00 -0.2093288E-04
-0.7190700E+00 -0.2117295E-04
-0.7185600E+00 -0.2141566E-04
-0.7180500E+00 -0.2166103E-04
-0.7175400E+00 -0.2190910E-04
-0.7170300E+00 -0.2215988E-04
-0.7165200E+00 -0.2241340E-04
-0.7160100E+00 -0.2266970E-04
-0.7155000E+00 -0.2292881E-04
-0.7149900E+00 -0.2319075E-04
-0.7144800E+00 -0.2345555E-04
-0.7139700E+00 -0.2372324E-04
-0.7134600E+00 -0.2399385E-04
-0.7129500E+00 -0.2426742E-04
-0.7124400E+00 -0.2454397E-04
-0.7119300E+00 -0.2482354E-04
-0.7114200E+00 -0.2510615E-04
-0.7109100E+00 -0.2539184E-04
-0.7104000E+00 -0.2568064E-04
-0.7098900E+00 -0.2597258E-04
-0.7093800E+00 -0.2626770E-04
-0.7088700E+00 -0.2656602E-04
-0.7083600E+00 -0.2686758E-04
-0.7078500E+00 -0.2717242E-04
-0.7073400E+00 -0.2748056E-04
-0.7068300E+00 -0.2779204E-04
-0.7063200E+00 -0.2810690E-04
-0.7058100E+00 -0.2842517E-04
-0.7053000E+00 -0.2874688E-04
-0.7047900E+00 -0.2907207E-04
-0.7042800E+00 -0.2940077E-04
-0.7037700E+00 -0.2973303E-04
-0.7032600E+00 -0.3006888E-04
-0.7027500E+00 -0.3040834E-04
-0.7022400E+00 -0.3075147E-04
-0.7017300E+00 -0.3109831E-04
-0.7012200E+00 -0.3144888E-04
-0.7007100E+00 -0.3180322E-04
-0.7002000E+00 -0.3216138E-04
-0.6996900E+00 -0.3252339E-04
-0.6991800E+00 -0.3288930E-04
-0.6986700E+00 -0.3325914E-04
-0.6981600E+00 -0.3363295E-04
-0.6976500E+00 -0.3401078E-04
-0.6971400E+00 -0.3439266E-04
-0.6966300E+00 -0.3477863E-04
-0.6961200E+00 -0.3516874E-04
-0.6956100E+00 -0.3556304E-04
-0.6951000E+00 -0.3596155E-04
-0.6945900E+00 -0.3636433E-04
-0.6940800E+00 -0.3677142E-04
-0.6935700E+00 -0.3718285E-04
-0.6930600E+00 -0.3759869E-04
-0.6925500E+00 -0.3801896E-04
-0.6920400E+00 -0.3844371E-04
-0.6915300E+00 -0.3887299E-04
-0.6910200E+00 -0.3930685E-04
-0.6905100E+00 -0.3974533E-04