-0.1200000E+01 -0.3230488E-04
-0.1199490E+01 -0.3266844E-04
-0.1198980E+01 -0.3303592E-04
-0.1198470E+01 -0.3340735E-04
-0.1197960E+01 -0.3378277E-04
-0.1197450E+01 -0.3416221E-04
-0.1196940E+01 -0.3454571E-04
-0.1196430E+01 -0.3493331E-04
-0.1195920E+01 -0.3532504E-04
-0.1195410E+01 -0.3572094E-04
-0.1194900E+01 -0.3612106E-04
-0.1194390E+01 -0.3652544E-04
-0.1193880E+01 -0.3693412E-04
-0.1193370E+01 -0.3734715E-04
-0.1192860E+01 -0.3776458E-04
-0.1192350E+01 -0.3818645E-04
-0.1191840E+01 -0.3861282E-04
-0.1191330E+01 -0.3904374E-04
-0.1190820E+01 -0.3947924E-04
-0.1190310E+01 -0.3991939E-04
-0.1189800E+01 -0.4036422E-04
-0.1189290E+01 -0.4081379E-04
-0.1188780E+01 -0.4126815E-04
-0.1188270E+01 -0.4172733E-04
-0.1187760E+01 -0.4219139E-04
-0.1187250E+01 -0.4266037E-04
-0.1186740E+01 -0.4313431E-04
-0.1186230E+01 -0.4361328E-04
-0.1185720E+01 -0.4409732E-04
-0.1185210E+01 -0.4458647E-04
-0.1184700E+01 -0.4508079E-04
-0.1184190E+01 -0.4558033E-04
-0.1183680E+01 -0.4608515E-04
-0.1183170E+01 -0.4659529E-04
-0.1182660E+01 -0.4711082E-04
-0.1182150E+01 -0.4763179E-04
-0.1181640E+01 -0.4815825E-04
-0.1181130E+01 -0.4869027E-04
-0.1180620E+01 -0.4922790E-04
-0.1180110E+01 -0.4977119E-04
-0.1179600E+01 -0.5032021E-04
-0.1179090E+01 -0.5087501E-04
-0.1178580E+01 -0.5143564E-04
-0.1178070E+01 -0.5200217E-04
-0.1177560E+01 -0.5257465E-04
-0.1177050E+01 -0.5315313E-04
-0.1176540E+01 -0.5373768E-04
-0.1176030E+01 -0.5432834E-04
-0.1175520E+01 -0.5492519E-04
-0.1175010E+01 -0.5552828E-04
-0.1174500E+01 -0.5613767E-04
-0.1173990E+01 -0.5675343E-04
-0.1173480E+01 -0.5737562E-04
-0.1172970E+01 -0.5800429E-04
-0.1172460E+01 -0.5863953E-04
-0.1171950E+01 -0.5928140E-04
-0.1171440E+01 -0.5992995E-04
-0.1170930E+01 -0.6058526E-04
-0.1170420E+01 -0.6124740E-04
-0.1169910E+01 -0.6191644E-04
-0.1169400E+01 -0.6259244E-04
-0.1168890E+01 -0.6327547E-04
-0.1168380E+01 -0.6396561E-04
-0.1167870E+01 -0.6466292E-04
-0.1167360E+01 -0.6536747E-04
-0.1166850E+01 -0.6607932E-04
-0.1166340E+01 -0.6679856E-04
-0.1165830E+01 -0.6752524E-04
-0.1165320E+01 -0.6825945E-04
-0.1164810E+01 -0.6900125E-04
-0.1164300E+01 -0.6975072E-04
-0.1163790E+01 -0.7050793E-04
-0.1163280E+01 -0.7127295E-04
-0.1162770E+01 -0.7204587E-04
-0.1162260E+01 -0.7282676E-04
-0.1161750E+01 -0.7361569E-04
-0.1161240E+01 -0.7441275E-04
-0.1160730E+01 -0.7521803E-04
-0.1160220E+01 -0.7603160E-04
-0.1159710E+01 -0.7685354E-04
-0.1159200E+01 -0.7768394E-04
-0.1158690E+01 -0.7852288E-04
-0.1158180E+01 -0.7937045E-04
-0.1157670E+01 -0.8022672E-04
-0.1157160E+01 -0.8109180E-04
-0.1156650E+01 -0.8196575E-04
-0.1156140E+01 -0.8284867E-04
-0.1155630E+01 -0.8374063E-04
-0.1155120E+01 -0.8464173E-04
-0.1154610E+01 -0.8555206E-04
-0.1154100E+01 -0.8647169E-04
-0.1153590E+01 -0.8740071E-04
-0.1153080E+01 -0.8833922E-04
-0.1152570E+01 -0.8928731E-04
-0.1152060E+01 -0.9024506E-04
-0.1151550E+01 -0.9121258E-04
-0.1151040E+01 -0.9218994E-04
-0.1150530E+01 -0.9317725E-04
-0.1150020E+01 -0.9417461E-04
-0.1149510E+01 -0.9518211E-04
-0.1149000E+01 -0.9619986E-04
-0.1148490E+01 -0.9722794E-04
-0.1147980E+01 -0.9826647E-04
-0.1147470E+01 -0.9931554E-04
-0.1146960E+01 -0.1003753E-03
-0.1146450E+01 -0.1014457E-03
-0.1145940E+01 -0.1025270E-03
-0.1145430E+01 -0.1036193E-03
-0.1144920E+01 -0.1047227E-03
-0.1144410E+01 -0.1058371E-03
-0.1143900E+01 -0.1069629E-03
-0.1143390E+01 -0.1081001E-03
-0.1142880E+01 -0.1092487E-03
-0.1142370E+01 -0.1104089E-03
-0.1141860E+01 -0.1115808E-03
-0.1141350E+01 -0.1127645E-03
-0.1140840E+01 -0.1139601E-03
-0.1140330E+01 -0.1151678E-03
-0.1139820E+01 -0.1163876E-03
-0.1139310E+01 -0.1176197E-03
-0.1138800E+01 -0.1188641E-03
-0.1138290E+01 -0.1201210E-03
-0.1137780E+01 -0.1213906E-03
-0.1137270E+01 -0.1226729E-03
-0.1136760E+01 -0.1239680E-03
-0.1136250E+01 -0.1252761E-03
-0.1135740E+01 -0.1265973E-03
-0.1135230E+01 -0.1279318E-03
-0.1134720E+01 -0.1292796E-03
-0.1134210E+01 -0.1306408E-03
-0.1133700E+01 -0.1320157E-03
-0.1133190E+01 -0.1334043E-03
-0.1132680E+01 -0.1348067E-03
-0.1132170E+01 -0.1362232E-03
-0.1131660E+01 -0.1376538E-03
-0.1131150E+01 -0.1390986E-03
-0.1130640E+01 -0.1405578E-03
-0.1130130E+01 -0.1420315E-03
-0.1129620E+01 -0.1435198E-03
-0.1129110E+01 -0.1450230E-03
-0.1128600E+01 -0.1465410E-03
-0.1128090E+01 -0.1480742E-03
-0.1127580E+01 -0.1496225E-03
-0.1127070E+01 -0.1511862E-03
-0.1126560E+01 -0.1527653E-03
-0.1126050E+01 -0.1543601E-03
-0.1125540E+01 -0.1559707E-03
-0.1125030E+01 -0.1575972E-03
-0.1124520E+01 -0.1592397E-03
-0.1124010E+01 -0.1608985E-03
-0.1123500E+01 -0.1625737E-03
-0.1122990E+01 -0.1642654E-03
-0.1122480E+01 -0.1659737E-03
-0.1121970E+01 -0.1676989E-03
-0.1121460E+01 -0.1694411E-03
-0.1120950E+01 -0.1712004E-03
-0.1120440E+01 -0.1729771E-03
-0.1119930E+01 -0.1747712E-03
-0.1119420E+01 -0.1765829E-03
-0.1118910E+01 -0.1784124E-03
-0.1118400E+01 -0.1802599E-03
-0.1117890E+01 -0.1821255E-03
-0.1117380E+01 -0.1840093E-03
-0.1116870E+01 -0.1859116E-03
-0.1116360E+01 -0.1878326E-03
-0.1115850E+01 -0.1897723E-03
-0.1115340E+01 -0.1917310E-03
-0.1114830E+01 -0.1937088E-03
-0.1114320E+01 -0.1957059E-03
-0.1113810E+01 -0.1977224E-03
-0.1113300E+01 -0.1997587E-03
-0.1112790E+01 -0.2018147E-03
-0.1112280E+01 -0.2038908E-03
-0.1111770E+01 -0.2059871E-03
-0.1111260E+01 -0.2081038E-03
-0.1110750E+01 -0.2102411E-03
-0.1110240E+01 -0.2123991E-03
-0.1109730E+01 -0.2145781E-03
-0.1109220E+01 -0.2167783E-03
-0.1108710E+01 -0.2189997E-03
-0.1108200E+01 -0.2212427E-03
-0.1107690E+01 -0.2235075E-03
-0.1107180E+01 -0.2257941E-03
-0.1106670E+01 -0.2281029E-03
-0.1106160E+01 -0.2304340E-03
-0.1105650E+01 -0.2327876E-03
-0.1105140E+01 -0.2351639E-03
-0.1104630E+01 -0.2375632E-03
-0.1104120E+01 -0.2399856E-03
-0.1103610E+01 -0.2424314E-03
-0.1103100E+01 -0.2449007E-03
-0.1102590E+01 -0.2473938E-03
-0.1102080E+01 -0.2499108E-03
-0.1101570E+01 -0.2524520E-03
-0.1101060E+01 -0.2550177E-03
-0.1100550E+01 -0.2576079E-03
-0.1100040E+01 -0.2602230E-03
-0.1099530E+01 -0.2628631E-03
-0.1099020E+01 -0.2655286E-03
-0.1098510E+01 -0.2682196E-03
-0.1098000E+01 -0.2709364E-03
-0.1097490E+01 -0.2736791E-03
-0.1096980E+01 -0.2764480E-03
-0.1096470E+01 -0.2792434E-03
-0.1095960E+01 -0.2820655E-03
-0.1095450E+01 -0.2849145E-03
-0.1094940E+01 -0.2877907E-03
-0.1094430E+01 -0.2906943E-03
-0.1093920E+01 -0.2936256E-03
-0.1093410E+01 -0.2965847E-03
-0.1092900E+01 -0.2995720E-03
-0.1092390E+01 -0.3025878E-03
-0.1091880E+01 -0.3056321E-03
-0.1091370E+01 -0.3087053E-03
-0.1090860E+01 -0.3118077E-03
-0.1090350E+01 -0.3149395E-03
-0.1089840E+01 -0.3181010E-03
-0.1089330E+01 -0.3212924E-03
-0.1088820E+01 -0.3245139E-03
-0.1088310E+01 -0.3277660E-03
-0.1087800E+01 -0.3310487E-03
-0.1087290E+01 -0.3343624E-03
-0.1086780E+01 -0.3377074E-03
-0.1086270E+01 -0.3410840E-03
-0.1085760E+01 -0.3444923E-03
-0.1085250E+01 -0.3479328E-03
-0.1084740E+01 -0.3514057E-03
-0.1084230E+01 -0.3549113E-03
-0.1083720E+01 -0.3584498E-03
-0.1083210E+01 -0.3620215E-03
-0.1082700E+01 -0.3656268E-03
-0.1082190E+01 -0.3692660E-03
-0.1081680E+01 -0.3729392E-03
-0.1081170E+01 -0.3766470E-03
-0.1080660E+01 -0.3803894E-03
-0.1080150E+01 -0.3841668E-03
-0.1079640E+01 -0.3879796E-03
-0.1079130E+01 -0.3918280E-03
-0.1078620E+01 -0.3957124E-03
-0.1078110E+01 -0.3996330E-03
-0.1077600E+01 -0.4035902E-03
-0.1077090E+01 -0.4075842E-03
-0.1076580E+01 -0.4116155E-03
-0.1076070E+01 -0.4156843E-03
-0.1075560E+01 -0.4197909E-03
-0.1075050E+01 -0.4239358E-03
-0.1074540E+01 -0.4281192E-03
-0.1074030E+01 -0.4323413E-03
-0.1073520E+01 -0.4366027E-03
-0.1073010E+01 -0.4409036E-03
-0.1072500E+01 -0.4452444E-03
-0.1071990E+01 -0.4496253E-03
-0.1071480E+01 -0.4540469E-03
-0.1070970E+01 -0.4585093E-03
-0.1070460E+01 -0.4630129E-03
-0.1069950E+01 -0.4675582E-03
-0.1069440E+01 -0.4721454E-03
-0.1068930E+01 -0.4767749E-03
-0.1068420E+01 -0.4814471E-03
-0.1067910E+01 -0.4861624E-03
-0.1067400E+01 -0.4909211E-03
-0.1066890E+01 -0.4957235E-03
-0.1066380E+01 -0.5005701E-03
-0.1065870E+01 -0.5054612E-03
-0.1065360E+01 -0.5103973E-03
-0.1064850E+01 -0.5153786E-03
-0.1064340E+01 -0.5204056E-03
-0.1063830E+01 -0.5254787E-03
-0.1063320E+01 -0.5305982E-03
-0.1062810E+01 -0.5357646E-03
-0.1062300E+01 -0.5409782E-03
-0.1061790E+01 -0.5462395E-03
-0.1061280E+01 -0.5515488E-03
-0.1060770E+01 -0.5569066E-03
-0.1060260E+01 -0.5623133E-03
-0.1059750E+01 -0.5677692E-03
-0.1059240E+01 -0.5732749E-03
-0.1058730E+01 -0.5788306E-03
-0.1058220E+01 -0.5844369E-03
-0.1057710E+01 -0.5900942E-03
-0.1057200E+01 -0.5958028E-03
-0.1056690E+01 -0.6015633E-03
-0.1056180E+01 -0.6073760E-03
-0.1055670E+01 -0.6132415E-03
-0.1055160E+01 -0.6191601E-03
-0.1054650E+01 -0.6251323E-03
-0.1054140E+01 -0.6311585E-03
-0.1053630E+01 -0.6372391E-03
-0.1053120E+01 -0.6433747E-03
-0.1052610E+01 -0.6495658E-03
-0.1052100E+01 -0.6558127E-03
-0.1051590E+01 -0.6621159E-03
-0.1051080E+01 -0.6684759E-03
-0.1050570E+01 -0.6748931E-03
-0.1050060E+01 -0.6813682E-03
-0.1049550E+01 -0.6879014E-03
-0.1049040E+01 -0.6944934E-03
-0.1048530E+01 -0.7011445E-03
-0.1048020E+01 -0.7078554E-03
-0.1047510E+01 -0.7146264E-03
-0.1047000E+01 -0.7214581E-03
-0.1046490E+01 -0.7283510E-03
-0.1045980E+01 -0.7353056E-03
-0.1045470E+01 -0.7423224E-03
-0.1044960E+01 -0.7494019E-03
-0.1044450E+01 -0.7565446E-03
-0.1043940E+01 -0.7637510E-03
-0.1043430E+01 -0.7710218E-03
-0.1042920E+01 -0.7783573E-03
-0.1042410E+01 -0.7857581E-03
-0.1041900E+01 -0.7932248E-03
-0.1041390E+01 -0.8007580E-03
-0.1040880E+01 -0.8083581E-03
-0.1040370E+01 -0.8160257E-03
-0.1039860E+01 -0.8237613E-03
-0.1039350E+01 -0.8315656E-03
-0.1038840E+01 -0.8394390E-03
-0.1038330E+01 -0.8473822E-03
-0.1037820E+01 -0.8553957E-03
-0.1037310E+01 -0.8634801E-03
-0.1036800E+01 -0.8716359E-03
-0.1036290E+01 -0.8798638E-03
-0.1035780E+01 -0.8881643E-03
-0.1035270E+01 -0.8965380E-03
-0.1034760E+01 -0.9049855E-03
-0.1034250E+01 -0.9135074E-03
-0.1033740E+01 -0.9221043E-03
-0.1033230E+01 -0.9307768E-03
-0.1032720E+01 -0.9395255E-03
-0.1032210E+01 -0.9483512E-03
-0.1031700E+01 -0.9572542E-03
-0.1031190E+01 -0.9662354E-03
-0.1030680E+01 -0.9752952E-03
-0.1030170E+01 -0.9844344E-03
-0.1029660E+01 -0.9936535E-03
-0.1029150E+01 -0.1002953E-02
-0.1028640E+01 -0.1012334E-02
-0.1028130E+01 -0.1021798E-02
-0.1027620E+01 -0.1031343E-02
-0.1027110E+01 -0.1040972E-02
-0.1026600E+01 -0.1050685E-02
-0.1026090E+01 -0.1060482E-02
-0.1025580E+01 -0.1070365E-02
-0.1025070E+01 -0.1080333E-02
-0.1024560E+01 -0.1090389E-02
-0.1024050E+01 -0.1100531E-02
-0.1023540E+01 -0.1110762E-02
-0.1023030E+01 -0.1121081E-02
-0.1022520E+01 -0.1131490E-02
-0.1022010E+01 -0.1141988E-02
-0.1021500E+01 -0.1152578E-02
-0.1020990E+01 -0.1163259E-02
-0.1020480E+01 -0.1174032E-02
-0.1019970E+01 -0.1184899E-02
-0.1019460E+01 -0.1195859E-02
-0.1018950E+01 -0.1206914E-02
-0.1018440E+01 -0.1218064E-02
-0.1017930E+01 -0.1229309E-02
-0.1017420E+01 -0.1240652E-02
-0.1016910E+01 -0.1252092E-02
-0.1016400E+01 -0.1263631E-02
-0.1015890E+01 -0.1275268E-02
-0.1015380E+01 -0.1287006E-02
-0.1014870E+01 -0.1298844E-02
-0.1014360E+01 -0.1310783E-02
-0.1013850E+01 -0.1322825E-02
-0.1013340E+01 -0.1334969E-02
-0.1012830E+01 -0.1347218E-02
-0.1012320E+01 -0.1359571E-02
-0.1011810E+01 -0.1372029E-02
-0.1011300E+01 -0.1384594E-02
-0.1010790E+01 -0.1397265E-02
-0.1010280E+01 -0.1410045E-02
-0.1009770E+01 -0.1422933E-02
-0.1009260E+01 -0.1435931E-02
-0.1008750E+01 -0.1449039E-02
-0.1008240E+01 -0.1462259E-02
-0.1007730E+01 -0.1475590E-02
-0.1007220E+01 -0.1489035E-02
-0.1006710E+01 -0.1502594E-02
-0.1006200E+01 -0.1516267E-02
-0.1005690E+01 -0.1530057E-02
-0.1005180E+01 -0.1543962E-02
-0.1004670E+01 -0.1557986E-02
-0.1004160E+01 -0.1572127E-02
-0.1003650E+01 -0.1586388E-02
-0.1003140E+01 -0.1600769E-02
-0.1002630E+01 -0.1615272E-02
-0.1002120E+01 -0.1629896E-02
-0.1001610E+01 -0.1644643E-02
-0.1001100E+01 -0.1659514E-02
-0.1000590E+01 -0.1674510E-02
-0.1000080E+01 -0.1689632E-02
-0.9995700E+00 -0.1704881E-02
-0.9990600E+00 -0.1720257E-02
-0.9985500E+00 -0.1735762E-02
-0.9980400E+00 -0.1751397E-02
-0.9975300E+00 -0.1767163E-02
-0.9970200E+00 -0.1783060E-02
-0.9965100E+00 -0.1799090E-02
-0.9960000E+00 -0.1815253E-02
-0.9954900E+00 -0.1831552E-02
-0.9949800E+00 -0.1847986E-02
-0.9944700E+00 -0.1864556E-02
-0.9939600E+00 -0.1881265E-02
-0.9934500E+00 -0.1898112E-02
-0.9929400E+00 -0.1915100E-02
-0.9924300E+00 -0.1932228E-02
-0.9919200E+00 -0.1949498E-02
-0.9914100E+00 -0.1966912E-02
-0.9909000E+00 -0.1984469E-02
-0.9903900E+00 -0.2002172E-02
-0.9898800E+00 -0.2020021E-02
-0.9893700E+00 -0.2038017E-02
-0.9888600E+00 -0.2056162E-02
-0.9883500E+00 -0.2074456E-02
-0.9878400E+00 -0.2092901E-02
-0.9873300E+00 -0.2111498E-02
-0.9868200E+00 -0.2130248E-02
-0.9863100E+00 -0.2149152E-02
-0.9858000E+00 -0.2168211E-02
-0.9852900E+00 -0.2187427E-02
-0.9847800E+00 -0.2206801E-02
-0.9842700E+00 -0.2226333E-02
-0.9837600E+00 -0.2246026E-02
-0.9832500E+00 -0.2265879E-02
-0.9827400E+00 -0.2285895E-02
-0.9822300E+00 -0.2306074E-02
-0.9817200E+00 -0.2326418E-02
-0.9812100E+00 -0.2346928E-02
-0.9807000E+00 -0.2367605E-02
-0.9801900E+00 -0.2388451E-02
-0.9796800E+00 -0.2409466E-02
-0.9791700E+00 -0.2430652E-02
-0.9786600E+00 -0.2452010E-02
-0.9781500E+00 -0.2473541E-02
-0.9776400E+00 -0.2495247E-02
-0.9771300E+00 -0.2517129E-02
-0.9766200E+00 -0.2539189E-02
-0.9761100E+00 -0.2561426E-02
-0.9756000E+00 -0.2583844E-02
-0.9750900E+00 -0.2606443E-02
-0.9745800E+00 -0.2629224E-02
-0.9740700E+00 -0.2652189E-02
-0.9735600E+00 -0.2675340E-02
-0.9730500E+00 -0.2698676E-02
-0.9725400E+00 -0.2722201E-02
-0.9720300E+00 -0.2745915E-02
-0.9715200E+00 -0.2769820E-02
-0.9710100E+00 -0.2793916E-02
-0.9705000E+00 -0.2818206E-02
-0.9699900E+00 -0.2842691E-02
-0.9694800E+00 -0.2867372E-02
-0.9689700E+00 -0.2892250E-02
-0.9684600E+00 -0.2917327E-02
-0.9679500E+00 -0.2942604E-02
-0.9674400E+00 -0.2968084E-02
-0.9669300E+00 -0.2993766E-02
-0.9664200E+00 -0.3019654E-02
-0.9659100E+00 -0.3045747E-02
-0.9654000E+00 -0.3072049E-02
-0.9648900E+00 -0.3098559E-02
-0.9643800E+00 -0.3125280E-02
-0.9638700E+00 -0.3152214E-02
-0.9633600E+00 -0.3179361E-02
-0.9628500E+00 -0.3206723E-02
-0.9623400E+00 -0.3234302E-02
-0.9618300E+00 -0.3262100E-02
-0.9613200E+00 -0.3290117E-02
-0.9608100E+00 -0.3318356E-02
-0.9603000E+00 -0.3346818E-02
-0.9597900E+00 -0.3375504E-02
-0.9592800E+00 -0.3404417E-02
-0.9587700E+00 -0.3433557E-02
-0.9582600E+00 -0.3462927E-02
-0.9577500E+00 -0.3492528E-02
-0.9572400E+00 -0.3522361E-02
-0.9567300E+00 -0.3552428E-02
-0.9562200E+00 -0.3582732E-02
-0.9557100E+00 -0.3613272E-02
-0.9552000E+00 -0.3644052E-02
-0.9546900E+00 -0.3675073E-02
-0.9541800E+00 -0.3706336E-02
-0.9536700E+00 -0.3737843E-02
-0.9531600E+00 -0.3769597E-02
-0.9526500E+00 -0.3801598E-02
-0.9521400E+00 -0.3833848E-02
-0.9516300E+00 -0.3866350E-02
-0.9511200E+00 -0.3899104E-02
-0.9506100E+00 -0.3932113E-02
-0.9501000E+00 -0.3965378E-02
-0.9495900E+00 -0.3998902E-02
-0.9490800E+00 -0.4032686E-02
-0.9485700E+00 -0.4066731E-02
-0.9480600E+00 -0.4101040E-02
-0.9475500E+00 -0.4135615E-02
-0.9470400E+00 -0.4170456E-02
-0.9465300E+00 -0.4205567E-02
-0.9460200E+00 -0.4240949E-02
-0.9455100E+00 -0.4276604E-02
-0.9450000E+00 -0.4312533E-02
-0.9444900E+00 -0.4348740E-02
-0.9439800E+00 -0.4385224E-02
-0.9434700E+00 -0.4421989E-02
-0.9429600E+00 -0.4459036E-02
-0.9424500E+00 -0.4496367E-02
-0.9419400E+00 -0.4533984E-02
-0.9414300E+00 -0.4571890E-02
-0.9409200E+00 -0.4610084E-02
-0.9404100E+00 -0.4648571E-02
-0.9399000E+00 -0.4687352E-02
-0.9393900E+00 -0.4726429E-02
-0.9388800E+00 -0.4765804E-02
-0.9383700E+00 -0.4805479E-02
-0.9378600E+00 -0.4845455E-02
-0.9373500E+00 -0.4885736E-02
-0.9368400E+00 -0.4926323E-02
-0.9363300E+00 -0.4967218E-02
-0.9358200E+00 -0.5008424E-02
-0.9353100E+00 -0.5049942E-02
-0.9348000E+00 -0.5091774E-02
-0.9342900E+00 -0.5133923E-02
-0.9337800E+00 -0.5176390E-02
-0.9332700E+00 -0.5219178E-02
-0.9327600E+00 -0.5262290E-02
-0.9322500E+00 -0.5305726E-02
-0.9317400E+00 -0.5349490E-02
-0.9312300E+00 -0.5393583E-02
-0.9307200E+00 -0.5438008E-02
-0.9302100E+00 -0.5482767E-02
-0.9297000E+00 -0.5527862E-02
-0.9291900E+00 -0.5573296E-02
-0.9286800E+00 -0.5619069E-02
-0.9281700E+00 -0.5665185E-02
-0.9276600E+00 -0.5711647E-02
-0.9271500E+00 -0.5758455E-02
-0.9266400E+00 -0.5805613E-02
-0.9261300E+00 -0.5853123E-02
-0.9256200E+00 -0.5900988E-02
-0.9251100E+00 -0.5949209E-02
-0.9246000E+00 -0.5997788E-02
-0.9240900E+00 -0.6046729E-02
-0.9235800E+00 -0.6096033E-02
-0.9230700E+00 -0.6145704E-02
-0.9225600E+00 -0.6195742E-02
-0.9220500E+00 -0.6246152E-02
-0.9215400E+00 -0.6296935E-02
-0.9210300E+00 -0.6348093E-02
-0.9205200E+00 -0.6399630E-02
-0.9200100E+00 -0.6451547E-02
-0.9195000E+00 -0.6503848E-02
-0.9189900E+00 -0.6556534E-02
-0.9184800E+00 -0.6609608E-02
-0.9179700E+00 -0.6663073E-02
-0.9174600E+00 -0.6716931E-02
-0.9169500E+00 -0.6771184E-02
-0.9164400E+00 -0.6825835E-02
-0.9159300E+00 -0.6880887E-02
-0.9154200E+00 -0.6936342E-02
-0.9149100E+00 -0.6992203E-02
-0.9144000E+00 -0.7048472E-02
-0.9138900E+00 -0.7105153E-02
-0.9133800E+00 -0.7162246E-02
-0.9128700E+00 -0.7219756E-02
-0.9123600E+00 -0.7277686E-02
-0.9118500E+00 -0.7336037E-02
-0.9113400E+00 -0.7394812E-02
-0.9108300E+00 -0.7454014E-02
-0.9103200E+00 -0.7513647E-02
-0.9098100E+00 -0.7573711E-02
-0.9093000E+00 -0.7634210E-02
-0.9087900E+00 -0.7695148E-02
-0.9082800E+00 -0.7756526E-02
-0.9077700E+00 -0.7818348E-02
-0.9072600E+00 -0.7880616E-02
-0.9067500E+00 -0.7943333E-02
-0.9062400E+00 -0.8006503E-02
-0.9057300E+00 -0.8070127E-02
-0.9052200E+00 -0.8134210E-02
-0.9047100E+00 -0.8198752E-02
-0.9042000E+00 -0.8263758E-02
-0.9036900E+00 -0.8329230E-02
-0.9031800E+00 -0.8395172E-02
-0.9026700E+00 -0.8461585E-02
-0.9021600E+00 -0.8528474E-02
-0.9016500E+00 -0.8595840E-02
-0.9011400E+00 -0.8663687E-02
-0.9006300E+00 -0.8732017E-02
-0.9001200E+00 -0.8800834E-02
-0.8996100E+00 -0.8870142E-02
-0.8991000E+00 -0.8939942E-02
-0.8985900E+00 -0.9010239E-02
-0.8980800E+00 -0.9081034E-02
-0.8975700E+00 -0.9152331E-02
-0.8970600E+00 -0.9224134E-02
-0.8965500E+00 -0.9296446E-02
-0.8960400E+00 -0.9369269E-02
-0.8955300E+00 -0.9442607E-02
-0.8950200E+00 -0.9516462E-02
-0.8945100E+00 -0.9590838E-02
-0.8940000E+00 -0.9665738E-02
-0.8934900E+00 -0.9741165E-02
-0.8929800E+00 -0.9817122E-02
-0.8924700E+00 -0.9893614E-02
-0.8919600E+00 -0.9970642E-02
-0.8914500E+00 -0.1004821E-01
-0.8909400E+00 -0.1012632E-01
-0.8904300E+00 -0.1020498E-01
-0.8899200E+00 -0.1028419E-01
-0.8894100E+00 -0.1036395E-01
-0.8889000E+00 -0.1044427E-01
-0.8883900E+00 -0.1052515E-01
-0.8878800E+00 -0.1060659E-01
-0.8873700E+00 -0.1068860E-01
-0.8868600E+00 -0.1077118E-01
-0.8863500E+00 -0.1085433E-01
-0.8858400E+00 -0.1093806E-01
-0.8853300E+00 -0.1102237E-01
-0.8848200E+00 -0.1110727E-01
-0.8843100E+00 -0.1119275E-01
-0.8838000E+00 -0.1127882E-01
-0.8832900E+00 -0.1136548E-01
-0.8827800E+00 -0.1145275E-01
-0.8822700E+00 -0.1154061E-01
-0.8817600E+00 -0.1162908E-01
-0.8812500E+00 -0.1171816E-01
-0.8807400E+00 -0.1180785E-01
-0.8802300E+00 -0.1189816E-01
-0.8797200E+00 -0.1198909E-01
-0.8792100E+00 -0.1208064E-01
-0.8787000E+00 -0.1217281E-01
-0.8781900E+00 -0.1226562E-01
-0.8776800E+00 -0.1235906E-01
-0.8771700E+00 -0.1245314E-01
-0.8766600E+00 -0.1254786E-01
-0.8761500E+00 -0.1264323E-01
-0.8756400E+00 -0.1273924E-01
-0.8751300E+00 -0.1283590E-01
-0.8746200E+00 -0.1293323E-01
-0.8741100E+00 -0.1303121E-01
-0.8736000E+00 -0.1312985E-01
-0.8730900E+00 -0.1322917E-01
-0.8725800E+00 -0.1332915E-01
-0.8720700E+00 -0.1342981E-01
-0.8715600E+00 -0.1353115E-01
-0.8710500E+00 -0.1363318E-01
-0.8705400E+00 -0.1373589E-01
-0.8700300E+00 -0.1383929E-01
-0.8695200E+00 -0.1394338E-01
-0.8690100E+00 -0.1404818E-01
-0.8685000E+00 -0.1415368E-01
-0.8679900E+00 -0.1425989E-01
-0.8674800E+00 -0.1436680E-01
-0.8669700E+00 -0.1447444E-01
-0.8664600E+00 -0.1458279E-01
-0.8659500E+00 -0.1469186E-01
-0.8654400E+00 -0.1480167E-01
-0.8649300E+00 -0.1491220E-01
-0.8644200E+00 -0.1502347E-01
-0.8639100E+00 -0.1513548E-01
-0.8634000E+00 -0.1524823E-01
-0.8628900E+00 -0.1536173E-01
-0.8623800E+00 -0.1547598E-01
-0.8618700E+00 -0.1559099E-01
-0.8613600E+00 -0.1570676E-01
-0.8608500E+00 -0.1582330E-01
-0.8603400E+00 -0.1594060E-01
-0.8598300E+00 -0.1605867E-01
-0.8593200E+00 -0.1617753E-01
-0.8588100E+00 -0.1629716E-01
-0.8583000E+00 -0.1641758E-01
-0.8577900E+00 -0.1653880E-01
-0.8572800E+00 -0.1666080E-01
-0.8567700E+00 -0.1678361E-01
-0.8562600E+00 -0.1690722E-01
-0.8557500E+00 -0.1703163E-01
-0.8552400E+00 -0.1715686E-01
-0.8547300E+00 -0.1728291E-01
-0.8542200E+00 -0.1740978E-01
-0.8537100E+00 -0.1753747E-01
-0.8532000E+00 -0.1766600E-01
-0.8526900E+00 -0.1779536E-01
-0.8521800E+00 -0.1792555E-01
-0.8516700E+00 -0.1805660E-01
-0.8511600E+00 -0.1818849E-01
-0.8506500E+00 -0.1832123E-01
-0.8501400E+00 -0.1845484E-01
-0.8496300E+00 -0.1858930E-01
-0.8491200E+00 -0.1872463E-01
-0.8486100E+00 -0.1886084E-01
-0.8481000E+00 -0.1899792E-01
-0.8475900E+00 -0.1913588E-01
-0.8470800E+00 -0.1927472E-01
-0.8465700E+00 -0.1941446E-01
-0.8460600E+00 -0.1955509E-01
-0.8455500E+00 -0.1969662E-01
-0.8450400E+00 -0.1983905E-01
-0.8445300E+00 -0.1998240E-01
-0.8440200E+00 -0.2012665E-01
-0.8435100E+00 -0.2027183E-01
-0.8430000E+00 -0.2041793E-01
-0.8424900E+00 -0.2056496E-01
-0.8419800E+00 -0.2071292E-01
-0.8414700E+00 -0.2086182E-01
-0.8409600E+00 -0.2101167E-01
-0.8404500E+00 -0.2116247E-01
-0.8399400E+00 -0.2131421E-01
-0.8394300E+00 -0.2146692E-01
-0.8389200E+00 -0.2162059E-01
-0.8384100E+00 -0.2177522E-01
-0.8379000E+00 -0.2193083E-01
-0.8373900E+00 -0.2208742E-01
-0.8368800E+00 -0.2224500E-01
-0.8363700E+00 -0.2240356E-01
-0.8358600E+00 -0.2256311E-01
-0.8353500E+00 -0.2272366E-01
-0.8348400E+00 -0.2288522E-01
-0.8343300E+00 -0.2304778E-01
-0.8338200E+00 -0.2321136E-01
-0.8333100E+00 -0.2337596E-01
-0.8328000E+00 -0.2354158E-01
-0.8322900E+00 -0.2370823E-01
-0.8317800E+00 -0.2387592E-01
-0.8312700E+00 -0.2404465E-01
-0.8307600E+00 -0.2421442E-01
-0.8302500E+00 -0.2438524E-01
-0.8297400E+00 -0.2455712E-01
-0.8292300E+00 -0.2473005E-01
-0.8287200E+00 -0.2490406E-01
-0.8282100E+00 -0.2507914E-01
-0.8277000E+00 -0.2525529E-01
-0.8271900E+00 -0.2543253E-01
-0.8266800E+00 -0.2561085E-01
-0.8261700E+00 -0.2579027E-01
-0.8256600E+00 -0.2597078E-01
-0.8251500E+00 -0.2615241E-01
-0.8246400E+00 -0.2633514E-01
-0.8241300E+00 -0.2651898E-01
-0.8236200E+00 -0.2670395E-01
-0.8231100E+00 -0.2689004E-01
-0.8226000E+00 -0.2707727E-01
-0.8220900E+00 -0.2726563E-01
-0.8215800E+00 -0.2745513E-01
-0.8210700E+00 -0.2764578E-01
-0.8205600E+00 -0.2783759E-01
-0.8200500E+00 -0.2803056E-01
-0.8195400E+00 -0.2822469E-01
-0.8190300E+00 -0.2841999E-01
-0.8185200E+00 -0.2861647E-01
-0.8180100E+00 -0.2881413E-01
-0.8175000E+00 -0.2901298E-01
-0.8169900E+00 -0.2921302E-01
-0.8164800E+00 -0.2941426E-01
-0.8159700E+00 -0.2961671E-01
-0.8154600E+00 -0.2982037E-01
-0.8149500E+00 -0.3002524E-01
-0.8144400E+00 -0.3023134E-01
-0.8139300E+00 -0.3043866E-01
-0.8134200E+00 -0.3064722E-01
-0.8129100E+00 -0.3085702E-01
-0.8124000E+00 -0.3106807E-01
-0.8118900E+00 -0.3128036E-01
-0.8113800E+00 -0.3149392E-01
-0.8108700E+00 -0.3170874E-01
-0.8103600E+00 -0.3192483E-01
-0.8098500E+00 -0.3214219E-01
-0.8093400E+00 -0.3236084E-01
-0.8088300E+00 -0.3258077E-01
-0.8083200E+00 -0.3280200E-01
-0.8078100E+00 -0.3302452E-01
-0.8073000E+00 -0.3324835E-01
-0.8067900E+00 -0.3347350E-01
-0.8062800E+00 -0.3369995E-01
-0.8057700E+00 -0.3392773E-01
-0.8052600E+00 -0.3415684E-01
-0.8047500E+00 -0.3438729E-01
-0.8042400E+00 -0.3461907E-01
-0.8037300E+00 -0.3485221E-01
-0.8032200E+00 -0.3508670E-01
-0.8027100E+00 -0.3532255E-01
-0.8022000E+00 -0.3555977E-01
-0.8016900E+00 -0.3579836E-01
-0.8011800E+00 -0.3603832E-01
-0.8006700E+00 -0.3627968E-01
-0.8001600E+00 -0.3652243E-01
-0.7996500E+00 -0.3676657E-01
-0.7991400E+00 -0.3701212E-01
-0.7986300E+00 -0.3725907E-01
-0.7981200E+00 -0.3750744E-01
-0.7976100E+00 -0.3775724E-01
-0.7971000E+00 -0.3800846E-01
-0.7965900E+00 -0.3826112E-01
-0.7960800E+00 -0.3851522E-01
-0.7955700E+00 -0.3877077E-01
-0.7950600E+00 -0.3902777E-01
-0.7945500E+00 -0.3928623E-01
-0.7940400E+00 -0.3954615E-01
-0.7935300E+00 -0.3980755E-01
-0.7930200E+00 -0.4007043E-01
-0.7925100E+00 -0.4033479E-01
-0.7920000E+00 -0.4060065E-01
-0.7914900E+00 -0.4086801E-01
-0.7909800E+00 -0.4113687E-01
-0.7904700E+00 -0.4140724E-01
-0.7899600E+00 -0.4167914E-01
-0.7894500E+00 -0.4195255E-01
-0.7889400E+00 -0.4222751E-01
-0.7884300E+00 -0.4250400E-01
-0.7879200E+00 -0.4278203E-01
-0.7874100E+00 -0.4306163E-01
-0.7869000E+00 -0.4334277E-01
-0.7863900E+00 -0.4362549E-01
-0.7858800E+00 -0.4390978E-01
-0.7853700E+00 -0.4419564E-01
-0.7848600E+00 -0.4448309E-01
-0.7843500E+00 -0.4477213E-01
-0.7838400E+00 -0.4506276E-01
-0.7833300E+00 -0.4535500E-01
-0.7828200E+00 -0.4564885E-01
-0.7823100E+00 -0.4594432E-01
-0.7818000E+00 -0.4624141E-01
-0.7812900E+00 -0.4654013E-01
-0.7807800E+00 -0.4684048E-01
-0.7802700E+00 -0.4714248E-01
-0.7797600E+00 -0.4744614E-01
-0.7792500E+00 -0.4775145E-01
-0.7787400E+00 -0.4805842E-01
-0.7782300E+00 -0.4836706E-01
-0.7777200E+00 -0.4867739E-01
-0.7772100E+00 -0.4898940E-01
-0.7767000E+00 -0.4930310E-01
-0.7761900E+00 -0.4961850E-01
-0.7756800E+00 -0.4993561E-01
-0.7751700E+00 -0.5025443E-01
-0.7746600E+00 -0.5057498E-01
-0.7741500E+00 -0.5089725E-01
-0.7736400E+00 -0.5122125E-01
-0.7731300E+00 -0.5154699E-01
-0.7726200E+00 -0.5187448E-01
-0.7721100E+00 -0.5220373E-01
-0.7716000E+00 -0.5253473E-01
-0.7710900E+00 -0.5286750E-01
-0.7705800E+00 -0.5320204E-01
-0.7700700E+00 -0.5353837E-01
-0.7695600E+00 -0.5387648E-01
-0.7690500E+00 -0.5421638E-01
-0.7685400E+00 -0.5455809E-01
-0.7680300E+00 -0.5490160E-01
-0.7675200E+00 -0.5524693E-01
-0.7670100E+00 -0.5559408E-01
-0.7665000E+00 -0.5594306E-01
-0.7659900E+00 -0.5629387E-01
-0.7654800E+00 -0.5664654E-01
-0.7649700E+00 -0.5700105E-01
-0.7644600E+00 -0.5735742E-01
-0.7639500E+00 -0.5771566E-01
-0.7634400E+00 -0.5807577E-01
-0.7629300E+00 -0.5843777E-01
-0.7624200E+00 -0.5880165E-01
-0.7619100E+00 -0.5916742E-01
-0.7614000E+00 -0.5953509E-01
-0.7608900E+00 -0.5990468E-01
-0.7603800E+00 -0.6027617E-01
-0.7598700E+00 -0.6064958E-01
-0.7593600E+00 -0.6102493E-01
-0.7588500E+00 -0.6140221E-01
-0.7583400E+00 -0.6178143E-01
-0.7578300E+00 -0.6216259E-01
-0.7573200E+00 -0.6254571E-01
-0.7568100E+00 -0.6293079E-01
-0.7563000E+00 -0.6331784E-01
-0.7557900E+00 -0.6370687E-01
-0.7552800E+00 -0.6409788E-01
-0.7547700E+00 -0.6449088E-01
-0.7542600E+00 -0.6488588E-01
-0.7537500E+00 -0.6528290E-01
-0.7532400E+00 -0.6568192E-01
-0.7527300E+00 -0.6608296E-01
-0.7522200E+00 -0.6648603E-01
-0.7517100E+00 -0.6689114E-01
-0.7512000E+00 -0.6729829E-01
-0.7506900E+00 -0.6770749E-01
-0.7501800E+00 -0.6811874E-01
-0.7496700E+00 -0.6853206E-01
-0.7491600E+00 -0.6894744E-01
-0.7486500E+00 -0.6936491E-01
-0.7481400E+00 -0.6978446E-01
-0.7476300E+00 -0.7020609E-01
-0.7471200E+00 -0.7062983E-01
-0.7466100E+00 -0.7105567E-01
-0.7461000E+00 -0.7148362E-01
-0.7455900E+00 -0.7191369E-01
-0.7450800E+00 -0.7234589E-01
-0.7445700E+00 -0.7278022E-01
-0.7440600E+00 -0.7321669E-01
-0.7435500E+00 -0.7365531E-01
-0.7430400E+00 -0.7409609E-01
-0.7425300E+00 -0.7453903E-01
-0.7420200E+00 -0.7498413E-01
-0.7415100E+00 -0.7543141E-01
-0.7410000E+00 -0.7588088E-01
-0.7404900E+00 -0.7633253E-01
-0.7399800E+00 -0.7678638E-01
-0.7394700E+00 -0.7724244E-01
-0.7389600E+00 -0.7770071E-01
-0.7384500E+00 -0.7816120E-01
-0.7379400E+00 -0.7862392E-01
-0.7374300E+00 -0.7908887E-01
-0.7369200E+00 -0.7955606E-01
-0.7364100E+00 -0.8002550E-01
-0.7359000E+00 -0.8049719E-01
-0.7353900E+00 -0.8097114E-01
-0.7348800E+00 -0.8144736E-01
-0.7343700E+00 -0.8192586E-01
-0.7338600E+00 -0.8240664E-01
-0.7333500E+00 -0.8288971E-01
-0.7328400E+00 -0.8337507E-01
-0.7323300E+00 -0.8386273E-01
-0.7318200E+00 -0.8435270E-01
-0.7313100E+00 -0.8484498E-01
-0.7308000E+00 -0.8533959E-01
-0.7302900E+00 -0.8583653E-01
-0.7297800E+00 -0.8633581E-01
-0.7292700E+00 -0.8683743E-01
-0.7287600E+00 -0.8734140E-01
-0.7282500E+00 -0.8784773E-01
-0.7277400E+00 -0.8835643E-01
-0.7272300E+00 -0.8886750E-01
-0.7267200E+00 -0.8938095E-01
-0.7262100E+00 -0.8989678E-01
-0.7257000E+00 -0.9041501E-01
-0.7251900E+00 -0.9093564E-01
-0.7246800E+00 -0.9145868E-01
-0.7241700E+00 -0.9198413E-01
-0.7236600E+00 -0.9251200E-01
-0.7231500E+00 -0.9304231E-01
-0.7226400E+00 -0.9357504E-01
-0.7221300E+00 -0.9411021E-01
-0.7216200E+00 -0.9464784E-01
-0.7211100E+00 -0.9518792E-01
-0.7206000E+00 -0.9573046E-01
-0.7200900E+00 -0.9627547E-01
-0.7195800E+00 -0.9682295E-01
-0.7190700E+00 -0.9737292E-01
-0.7185600E+00 -0.9792537E-01
-0.7180500E+00 -0.9848032E-01
-0.7175400E+00 -0.9903777E-01
-0.7170300E+00 -0.9959772E-01
-0.7165200E+00 -0.1001602E+00
-0.7160100E+00 -0.1007252E+00
-0.7155000E+00 -0.1012927E+00
-0.7149900E+00 -0.1018628E+00
-0.7144800E+00 -0.1024354E+00
-0.7139700E+00 -0.1030105E+00
-0.7134600E+00 -0.1035882E+00
-0.7129500E+00 -0.1041684E+00
-0.7124400E+00 -0.1047512E+00
-0.7119300E+00 -0.1053366E+00
-0.7114200E+00 -0.1059246E+00
-0.7109100E+00 -0.1065151E+00
-0.7104000E+00 -0.1071083E+00
-0.7098900E+00 -0.1077040E+00
-0.7093800E+00 -0.1083024E+00
-0.7088700E+00 -0.1089034E+00
-0.7083600E+00 -0.1095069E+00
-0.7078500E+00 -0.1101132E+00
-0.7073400E+00 -0.1107220E+00
-0.7068300E+00 -0.1113335E+00
-0.7063200E+00 -0.1119476E+00
-0.7058100E+00 -0.1125644E+00
-0.7053000E+00 -0.1131838E+00
-0.7047900E+00 -0.1138059E+00
-0.7042800E+00 -0.1144307E+00
-0.7037700E+00 -0.1150581E+00
-0.7032600E+00 -0.1156882E+00
-0.7027500E+00 -0.1163210E+00
-0.7022400E+00 -0.1169565E+00
-0.7017300E+00 -0.1175947E+00
-0.7012200E+00 -0.1182356E+00
-0.7007100E+00 -0.1188791E+00
-0.7002000E+00 -0.1195254E+00
-0.6996900E+00 -0.1201745E+00
-0.6991800E+00 -0.1208262E+00
-0.6986700E+00 -0.1214807E+00
-0.6981600E+00 -0.1221379E+00
-0.6976500E+00 -0.1227979E+00
-0.6971400E+00 -0.1234607E+00
-0.6966300E+00 -0.1241262E+00
-0.6961200E+00 -0.1247944E+00
-0.6956100E+00 -0.1254654E+00
-0.6951000E+00 -0.1261392E+00
-0.6945900E+00 -0.1268158E+00
-0.6940800E+00 -0.1274952E+00
-0.6935700E+00 -0.1281773E+00
-0.6930600E+00 -0.1288623E+00
-0.6925500E+00 -0.1295500E+00
-0.6920400E+00 -0.1302406E+00
-0.6915300E+00 -0.1309340E+00
-0.6910200E+00 -0.1316301E+00
-0.6905100E+00 -0.1323291E+00