-0.1200000E+01 -0.6675876E-08
-0.1199490E+01 -0.6775062E-08
-0.1198980E+01 -0.6875688E-08
-0.1198470E+01 -0.6977773E-08
-0.1197960E+01 -0.7081337E-08
-0.1197450E+01 -0.7186401E-08
-0.1196940E+01 -0.7292985E-08
-0.1196430E+01 -0.7401110E-08
-0.1195920E+01 -0.7510796E-08
-0.1195410E+01 -0.7622067E-08
-0.1194900E+01 -0.7734942E-08
-0.1194390E+01 -0.7849443E-08
-0.1193880E+01 -0.7965594E-08
-0.1193370E+01 -0.8083417E-08
-0.1192860E+01 -0.8202935E-08
-0.1192350E+01 -0.8324174E-08
-0.1191840E+01 -0.8447157E-08
-0.1191330E+01 -0.8571909E-08
-0.1190820E+01 -0.8698455E-08
-0.1190310E+01 -0.8826823E-08
-0.1189800E+01 -0.8957037E-08
-0.1189290E+01 -0.9089124E-08
-0.1188780E+01 -0.9223111E-08
-0.1188270E+01 -0.9359026E-08
-0.1187760E+01 -0.9496895E-08
-0.1187250E+01 -0.9636747E-08
-0.1186740E+01 -0.9778608E-08
-0.1186230E+01 -0.9922507E-08
-0.1185720E+01 -0.1006847E-07
-0.1185210E+01 -0.1021653E-07
-0.1184700E+01 -0.1036672E-07
-0.1184190E+01 -0.1051905E-07
-0.1183680E+01 -0.1067357E-07
-0.1183170E+01 -0.1083030E-07
-0.1182660E+01 -0.1098926E-07
-0.1182150E+01 -0.1115051E-07
-0.1181640E+01 -0.1131405E-07
-0.1181130E+01 -0.1147993E-07
-0.1180620E+01 -0.1164817E-07
-0.1180110E+01 -0.1181882E-07
-0.1179600E+01 -0.1199189E-07
-0.1179090E+01 -0.1216744E-07
-0.1178580E+01 -0.1234548E-07
-0.1178070E+01 -0.1252606E-07
-0.1177560E+01 -0.1270921E-07
-0.1177050E+01 -0.1289497E-07
-0.1176540E+01 -0.1308338E-07
-0.1176030E+01 -0.1327447E-07
-0.1175520E+01 -0.1346828E-07
-0.1175010E+01 -0.1366485E-07
-0.1174500E+01 -0.1386422E-07
-0.1173990E+01 -0.1406642E-07
-0.1173480E+01 -0.1427150E-07
-0.1172970E+01 -0.1447949E-07
-0.1172460E+01 -0.1469043E-07
-0.1171950E+01 -0.1490437E-07
-0.1171440E+01 -0.1512135E-07
-0.1170930E+01 -0.1534140E-07
-0.1170420E+01 -0.1556458E-07
-0.1169910E+01 -0.1579091E-07
-0.1169400E+01 -0.1602044E-07
-0.1168890E+01 -0.1625323E-07
-0.1168380E+01 -0.1648930E-07
-0.1167870E+01 -0.1672871E-07
-0.1167360E+01 -0.1697151E-07
-0.1166850E+01 -0.1721773E-07
-0.1166340E+01 -0.1746743E-07
-0.1165830E+01 -0.1772065E-07
-0.1165320E+01 -0.1797744E-07
-0.1164810E+01 -0.1823786E-07
-0.1164300E+01 -0.1850195E-07
-0.1163790E+01 -0.1876976E-07
-0.1163280E+01 -0.1904135E-07
-0.1162770E+01 -0.1931676E-07
-0.1162260E+01 -0.1959605E-07
-0.1161750E+01 -0.1987928E-07
-0.1161240E+01 -0.2016649E-07
-0.1160730E+01 -0.2045775E-07
-0.1160220E+01 -0.2075310E-07
-0.1159710E+01 -0.2105261E-07
-0.1159200E+01 -0.2135632E-07
-0.1158690E+01 -0.2166431E-07
-0.1158180E+01 -0.2197661E-07
-0.1157670E+01 -0.2229330E-07
-0.1157160E+01 -0.2261443E-07
-0.1156650E+01 -0.2294007E-07
-0.1156140E+01 -0.2327026E-07
-0.1155630E+01 -0.2360508E-07
-0.1155120E+01 -0.2394459E-07
-0.1154610E+01 -0.2428884E-07
-0.1154100E+01 -0.2463791E-07
-0.1153590E+01 -0.2499186E-07
-0.1153080E+01 -0.2535076E-07
-0.1152570E+01 -0.2571467E-07
-0.1152060E+01 -0.2608366E-07
-0.1151550E+01 -0.2645780E-07
-0.1151040E+01 -0.2683716E-07
-0.1150530E+01 -0.2722181E-07
-0.1150020E+01 -0.2761183E-07
-0.1149510E+01 -0.2800729E-07
-0.1149000E+01 -0.2840826E-07
-0.1148490E+01 -0.2881482E-07
-0.1147980E+01 -0.2922704E-07
-0.1147470E+01 -0.2964500E-07
-0.1146960E+01 -0.3006879E-07
-0.1146450E+01 -0.3049846E-07
-0.1145940E+01 -0.3093411E-07
-0.1145430E+01 -0.3137582E-07
-0.1144920E+01 -0.3182367E-07
-0.1144410E+01 -0.3227773E-07
-0.1143900E+01 -0.3273810E-07
-0.1143390E+01 -0.3320486E-07
-0.1142880E+01 -0.3367808E-07
-0.1142370E+01 -0.3415787E-07
-0.1141860E+01 -0.3464430E-07
-0.1141350E+01 -0.3513746E-07
-0.1140840E+01 -0.3563746E-07
-0.1140330E+01 -0.3614436E-07
-0.1139820E+01 -0.3665828E-07
-0.1139310E+01 -0.3717930E-07
-0.1138800E+01 -0.3770753E-07
-0.1138290E+01 -0.3824304E-07
-0.1137780E+01 -0.3878596E-07
-0.1137270E+01 -0.3933637E-07
-0.1136760E+01 -0.3989437E-07
-0.1136250E+01 -0.4046007E-07
-0.1135740E+01 -0.4103358E-07
-0.1135230E+01 -0.4161499E-07
-0.1134720E+01 -0.4220442E-07
-0.1134210E+01 -0.4280196E-07
-0.1133700E+01 -0.4340774E-07
-0.1133190E+01 -0.4402186E-07
-0.1132680E+01 -0.4464442E-07
-0.1132170E+01 -0.4527555E-07
-0.1131660E+01 -0.4591536E-07
-0.1131150E+01 -0.4656395E-07
-0.1130640E+01 -0.4722145E-07
-0.1130130E+01 -0.4788798E-07
-0.1129620E+01 -0.4856365E-07
-0.1129110E+01 -0.4924858E-07
-0.1128600E+01 -0.4994290E-07
-0.1128090E+01 -0.5064674E-07
-0.1127580E+01 -0.5136022E-07
-0.1127070E+01 -0.5208346E-07
-0.1126560E+01 -0.5281661E-07
-0.1126050E+01 -0.5355977E-07
-0.1125540E+01 -0.5431311E-07
-0.1125030E+01 -0.5507673E-07
-0.1124520E+01 -0.5585080E-07
-0.1124010E+01 -0.5663544E-07
-0.1123500E+01 -0.5743079E-07
-0.1122990E+01 -0.5823700E-07
-0.1122480E+01 -0.5905421E-07
-0.1121970E+01 -0.5988257E-07
-0.1121460E+01 -0.6072221E-07
-0.1120950E+01 -0.6157331E-07
-0.1120440E+01 -0.6243600E-07
-0.1119930E+01 -0.6331044E-07
-0.1119420E+01 -0.6419678E-07
-0.1118910E+01 -0.6509517E-07
-0.1118400E+01 -0.6600579E-07
-0.1117890E+01 -0.6692878E-07
-0.1117380E+01 -0.6786432E-07
-0.1116870E+01 -0.6881256E-07
-0.1116360E+01 -0.6977367E-07
-0.1115850E+01 -0.7074782E-07
-0.1115340E+01 -0.7173517E-07
-0.1114830E+01 -0.7273592E-07
-0.1114320E+01 -0.7375021E-07
-0.1113810E+01 -0.7477825E-07
-0.1113300E+01 -0.7582020E-07
-0.1112790E+01 -0.7687626E-07
-0.1112280E+01 -0.7794660E-07
-0.1111770E+01 -0.7903142E-07
-0.1111260E+01 -0.8013090E-07
-0.1110750E+01 -0.8124523E-07
-0.1110240E+01 -0.8237463E-07
-0.1109730E+01 -0.8351927E-07
-0.1109220E+01 -0.8467936E-07
-0.1108710E+01 -0.8585511E-07
-0.1108200E+01 -0.8704672E-07
-0.1107690E+01 -0.8825440E-07
-0.1107180E+01 -0.8947834E-07
-0.1106670E+01 -0.9071878E-07
-0.1106160E+01 -0.9197591E-07
-0.1105650E+01 -0.9324997E-07
-0.1105140E+01 -0.9454116E-07
-0.1104630E+01 -0.9584971E-07
-0.1104120E+01 -0.9717585E-07
-0.1103610E+01 -0.9851981E-07
-0.1103100E+01 -0.9988180E-07
-0.1102590E+01 -0.1012621E-06
-0.1102080E+01 -0.1026609E-06
-0.1101570E+01 -0.1040784E-06
-0.1101060E+01 -0.1055150E-06
-0.1100550E+01 -0.1069708E-06
-0.1100040E+01 -0.1084461E-06
-0.1099530E+01 -0.1099411E-06
-0.1099020E+01 -0.1114561E-06
-0.1098510E+01 -0.1129915E-06
-0.1098000E+01 -0.1145473E-06
-0.1097490E+01 -0.1161239E-06
-0.1096980E+01 -0.1177216E-06
-0.1096470E+01 -0.1193407E-06
-0.1095960E+01 -0.1209813E-06
-0.1095450E+01 -0.1226439E-06
-0.1094940E+01 -0.1243286E-06
-0.1094430E+01 -0.1260358E-06
-0.1093920E+01 -0.1277658E-06
-0.1093410E+01 -0.1295188E-06
-0.1092900E+01 -0.1312951E-06
-0.1092390E+01 -0.1330951E-06
-0.1091880E+01 -0.1349190E-06
-0.1091370E+01 -0.1367672E-06
-0.1090860E+01 -0.1386400E-06
-0.1090350E+01 -0.1405376E-06
-0.1089840E+01 -0.1424604E-06
-0.1089330E+01 -0.1444088E-06
-0.1088820E+01 -0.1463830E-06
-0.1088310E+01 -0.1483834E-06
-0.1087800E+01 -0.1504103E-06
-0.1087290E+01 -0.1524641E-06
-0.1086780E+01 -0.1545450E-06
-0.1086270E+01 -0.1566536E-06
-0.1085760E+01 -0.1587900E-06
-0.1085250E+01 -0.1609547E-06
-0.1084740E+01 -0.1631480E-06
-0.1084230E+01 -0.1653704E-06
-0.1083720E+01 -0.1676221E-06
-0.1083210E+01 -0.1699035E-06
-0.1082700E+01 -0.1722151E-06
-0.1082190E+01 -0.1745572E-06
-0.1081680E+01 -0.1769301E-06
-0.1081170E+01 -0.1793344E-06
-0.1080660E+01 -0.1817703E-06
-0.1080150E+01 -0.1842384E-06
-0.1079640E+01 -0.1867389E-06
-0.1079130E+01 -0.1892724E-06
-0.1078620E+01 -0.1918392E-06
-0.1078110E+01 -0.1944397E-06
-0.1077600E+01 -0.1970744E-06
-0.1077090E+01 -0.1997438E-06
-0.1076580E+01 -0.2024482E-06
-0.1076070E+01 -0.2051881E-06
-0.1075560E+01 -0.2079639E-06
-0.1075050E+01 -0.2107762E-06
-0.1074540E+01 -0.2136253E-06
-0.1074030E+01 -0.2165117E-06
-0.1073520E+01 -0.2194360E-06
-0.1073010E+01 -0.2223985E-06
-0.1072500E+01 -0.2253998E-06
-0.1071990E+01 -0.2284404E-06
-0.1071480E+01 -0.2315208E-06
-0.1070970E+01 -0.2346414E-06
-0.1070460E+01 -0.2378028E-06
-0.1069950E+01 -0.2410055E-06
-0.1069440E+01 -0.2442500E-06
-0.1068930E+01 -0.2475369E-06
-0.1068420E+01 -0.2508666E-06
-0.1067910E+01 -0.2542397E-06
-0.1067400E+01 -0.2576568E-06
-0.1066890E+01 -0.2611185E-06
-0.1066380E+01 -0.2646252E-06
-0.1065870E+01 -0.2681775E-06
-0.1065360E+01 -0.2717760E-06
-0.1064850E+01 -0.2754213E-06
-0.1064340E+01 -0.2791141E-06
-0.1063830E+01 -0.2828547E-06
-0.1063320E+01 -0.2866440E-06
-0.1062810E+01 -0.2904824E-06
-0.1062300E+01 -0.2943706E-06
-0.1061790E+01 -0.2983093E-06
-0.1061280E+01 -0.3022990E-06
-0.1060770E+01 -0.3063404E-06
-0.1060260E+01 -0.3104342E-06
-0.1059750E+01 -0.3145809E-06
-0.1059240E+01 -0.3187813E-06
-0.1058730E+01 -0.3230361E-06
-0.1058220E+01 -0.3273459E-06
-0.1057710E+01 -0.3317113E-06
-0.1057200E+01 -0.3361332E-06
-0.1056690E+01 -0.3406122E-06
-0.1056180E+01 -0.3451490E-06
-0.1055670E+01 -0.3497443E-06
-0.1055160E+01 -0.3543989E-06
-0.1054650E+01 -0.3591135E-06
-0.1054140E+01 -0.3638889E-06
-0.1053630E+01 -0.3687258E-06
-0.1053120E+01 -0.3736249E-06
-0.1052610E+01 -0.3785871E-06
-0.1052100E+01 -0.3836130E-06
-0.1051590E+01 -0.3887036E-06
-0.1051080E+01 -0.3938596E-06
-0.1050570E+01 -0.3990818E-06
-0.1050060E+01 -0.4043711E-06
-0.1049550E+01 -0.4097282E-06
-0.1049040E+01 -0.4151540E-06
-0.1048530E+01 -0.4206494E-06
-0.1048020E+01 -0.4262152E-06
-0.1047510E+01 -0.4318523E-06
-0.1047000E+01 -0.4375616E-06
-0.1046490E+01 -0.4433440E-06
-0.1045980E+01 -0.4492003E-06
-0.1045470E+01 -0.4551316E-06
-0.1044960E+01 -0.4611387E-06
-0.1044450E+01 -0.4672225E-06
-0.1043940E+01 -0.4733840E-06
-0.1043430E+01 -0.4796241E-06
-0.1042920E+01 -0.4859439E-06
-0.1042410E+01 -0.4923443E-06
-0.1041900E+01 -0.4988264E-06
-0.1041390E+01 -0.5053910E-06
-0.1040880E+01 -0.5120392E-06
-0.1040370E+01 -0.5187720E-06
-0.1039860E+01 -0.5255905E-06
-0.1039350E+01 -0.5324957E-06
-0.1038840E+01 -0.5394887E-06
-0.1038330E+01 -0.5465706E-06
-0.1037820E+01 -0.5537424E-06
-0.1037310E+01 -0.5610053E-06
-0.1036800E+01 -0.5683603E-06
-0.1036290E+01 -0.5758086E-06
-0.1035780E+01 -0.5833513E-06
-0.1035270E+01 -0.5909897E-06
-0.1034760E+01 -0.5987247E-06
-0.1034250E+01 -0.6065578E-06
-0.1033740E+01 -0.6144899E-06
-0.1033230E+01 -0.6225224E-06
-0.1032720E+01 -0.6306565E-06
-0.1032210E+01 -0.6388934E-06
-0.1031700E+01 -0.6472343E-06
-0.1031190E+01 -0.6556807E-06
-0.1030680E+01 -0.6642336E-06
-0.1030170E+01 -0.6728945E-06
-0.1029660E+01 -0.6816646E-06
-0.1029150E+01 -0.6905452E-06
-0.1028640E+01 -0.6995378E-06
-0.1028130E+01 -0.7086436E-06
-0.1027620E+01 -0.7178641E-06
-0.1027110E+01 -0.7272005E-06
-0.1026600E+01 -0.7366543E-06
-0.1026090E+01 -0.7462270E-06
-0.1025580E+01 -0.7559200E-06
-0.1025070E+01 -0.7657347E-06
-0.1024560E+01 -0.7756726E-06
-0.1024050E+01 -0.7857352E-06
-0.1023540E+01 -0.7959239E-06
-0.1023030E+01 -0.8062405E-06
-0.1022520E+01 -0.8166862E-06
-0.1022010E+01 -0.8272629E-06
-0.1021500E+01 -0.8379719E-06
-0.1020990E+01 -0.8488149E-06
-0.1020480E+01 -0.8597935E-06
-0.1019970E+01 -0.8709094E-06
-0.1019460E+01 -0.8821642E-06
-0.1018950E+01 -0.8935597E-06
-0.1018440E+01 -0.9050974E-06
-0.1017930E+01 -0.9167791E-06
-0.1017420E+01 -0.9286066E-06
-0.1016910E+01 -0.9405816E-06
-0.1016400E+01 -0.9527058E-06
-0.1015890E+01 -0.9649810E-06
-0.1015380E+01 -0.9774091E-06
-0.1014870E+01 -0.9899918E-06
-0.1014360E+01 -0.1002731E-05
-0.1013850E+01 -0.1015629E-05
-0.1013340E+01 -0.1028687E-05
-0.1012830E+01 -0.1041907E-05
-0.1012320E+01 -0.1055291E-05
-0.1011810E+01 -0.1068841E-05
-0.1011300E+01 -0.1082560E-05
-0.1010790E+01 -0.1096448E-05
-0.1010280E+01 -0.1110509E-05
-0.1009770E+01 -0.1124744E-05
-0.1009260E+01 -0.1139155E-05
-0.1008750E+01 -0.1153744E-05
-0.1008240E+01 -0.1168514E-05
-0.1007730E+01 -0.1183467E-05
-0.1007220E+01 -0.1198604E-05
-0.1006710E+01 -0.1213929E-05
-0.1006200E+01 -0.1229442E-05
-0.1005690E+01 -0.1245148E-05
-0.1005180E+01 -0.1261047E-05
-0.1004670E+01 -0.1277142E-05
-0.1004160E+01 -0.1293435E-05
-0.1003650E+01 -0.1309929E-05
-0.1003140E+01 -0.1326626E-05
-0.1002630E+01 -0.1343529E-05
-0.1002120E+01 -0.1360640E-05
-0.1001610E+01 -0.1377961E-05
-0.1001100E+01 -0.1395494E-05
-0.1000590E+01 -0.1413244E-05
-0.1000080E+01 -0.1431211E-05
-0.9995700E+00 -0.1449398E-05
-0.9990600E+00 -0.1467809E-05
-0.9985500E+00 -0.1486446E-05
-0.9980400E+00 -0.1505311E-05
-0.9975300E+00 -0.1524407E-05
-0.9970200E+00 -0.1543737E-05
-0.9965100E+00 -0.1563303E-05
-0.9960000E+00 -0.1583109E-05
-0.9954900E+00 -0.1603157E-05
-0.9949800E+00 -0.1623451E-05
-0.9944700E+00 -0.1643992E-05
-0.9939600E+00 -0.1664784E-05
-0.9934500E+00 -0.1685829E-05
-0.9929400E+00 -0.1707132E-05
-0.9924300E+00 -0.1728694E-05
-0.9919200E+00 -0.1750519E-05
-0.9914100E+00 -0.1772610E-05
-0.9909000E+00 -0.1794970E-05
-0.9903900E+00 -0.1817602E-05
-0.9898800E+00 -0.1840510E-05
-0.9893700E+00 -0.1863695E-05
-0.9888600E+00 -0.1887163E-05
-0.9883500E+00 -0.1910916E-05
-0.9878400E+00 -0.1934957E-05
-0.9873300E+00 -0.1959290E-05
-0.9868200E+00 -0.1983917E-05
-0.9863100E+00 -0.2008844E-05
-0.9858000E+00 -0.2034072E-05
-0.9852900E+00 -0.2059606E-05
-0.9847800E+00 -0.2085449E-05
-0.9842700E+00 -0.2111605E-05
-0.9837600E+00 -0.2138077E-05
-0.9832500E+00 -0.2164869E-05
-0.9827400E+00 -0.2191985E-05
-0.9822300E+00 -0.2219429E-05
-0.9817200E+00 -0.2247204E-05
-0.9812100E+00 -0.2275314E-05
-0.9807000E+00 -0.2303763E-05
-0.9801900E+00 -0.2332556E-05
-0.9796800E+00 -0.2361695E-05
-0.9791700E+00 -0.2391185E-05
-0.9786600E+00 -0.2421030E-05
-0.9781500E+00 -0.2451235E-05
-0.9776400E+00 -0.2481802E-05
-0.9771300E+00 -0.2512737E-05
-0.9766200E+00 -0.2544044E-05
-0.9761100E+00 -0.2575727E-05
-0.9756000E+00 -0.2607790E-05
-0.9750900E+00 -0.2640237E-05
-0.9745800E+00 -0.2673074E-05
-0.9740700E+00 -0.2706304E-05
-0.9735600E+00 -0.2739932E-05
-0.9730500E+00 -0.2773963E-05
-0.9725400E+00 -0.2808402E-05
-0.9720300E+00 -0.2843252E-05
-0.9715200E+00 -0.2878519E-05
-0.9710100E+00 -0.2914207E-05
-0.9705000E+00 -0.2950322E-05
-0.9699900E+00 -0.2986869E-05
-0.9694800E+00 -0.3023851E-05
-0.9689700E+00 -0.3061275E-05
-0.9684600E+00 -0.3099145E-05
-0.9679500E+00 -0.3137466E-05
-0.9674400E+00 -0.3176244E-05
-0.9669300E+00 -0.3215483E-05
-0.9664200E+00 -0.3255190E-05
-0.9659100E+00 -0.3295368E-05
-0.9654000E+00 -0.3336025E-05
-0.9648900E+00 -0.3377164E-05
-0.9643800E+00 -0.3418793E-05
-0.9638700E+00 -0.3460915E-05
-0.9633600E+00 -0.3503537E-05
-0.9628500E+00 -0.3546665E-05
-0.9623400E+00 -0.3590303E-05
-0.9618300E+00 -0.3634459E-05
-0.9613200E+00 -0.3679138E-05
-0.9608100E+00 -0.3724345E-05
-0.9603000E+00 -0.3770087E-05
-0.9597900E+00 -0.3816370E-05
-0.9592800E+00 -0.3863200E-05
-0.9587700E+00 -0.3910583E-05
-0.9582600E+00 -0.3958526E-05
-0.9577500E+00 -0.4007035E-05
-0.9572400E+00 -0.4056116E-05
-0.9567300E+00 -0.4105776E-05
-0.9562200E+00 -0.4156021E-05
-0.9557100E+00 -0.4206857E-05
-0.9552000E+00 -0.4258293E-05
-0.9546900E+00 -0.4310334E-05
-0.9541800E+00 -0.4362987E-05
-0.9536700E+00 -0.4416258E-05
-0.9531600E+00 -0.4470156E-05
-0.9526500E+00 -0.4524687E-05
-0.9521400E+00 -0.4579857E-05
-0.9516300E+00 -0.4635675E-05
-0.9511200E+00 -0.4692148E-05
-0.9506100E+00 -0.4749283E-05
-0.9501000E+00 -0.4807087E-05
-0.9495900E+00 -0.4865568E-05
-0.9490800E+00 -0.4924733E-05
-0.9485700E+00 -0.4984591E-05
-0.9480600E+00 -0.5045148E-05
-0.9475500E+00 -0.5106413E-05
-0.9470400E+00 -0.5168393E-05
-0.9465300E+00 -0.5231097E-05
-0.9460200E+00 -0.5294533E-05
-0.9455100E+00 -0.5358709E-05
-0.9450000E+00 -0.5423633E-05
-0.9444900E+00 -0.5489313E-05
-0.9439800E+00 -0.5555759E-05
-0.9434700E+00 -0.5622977E-05
-0.9429600E+00 -0.5690978E-05
-0.9424500E+00 -0.5759769E-05
-0.9419400E+00 -0.5829361E-05
-0.9414300E+00 -0.5899760E-05
-0.9409200E+00 -0.5970977E-05
-0.9404100E+00 -0.6043021E-05
-0.9399000E+00 -0.6115901E-05
-0.9393900E+00 -0.6189625E-05
-0.9388800E+00 -0.6264204E-05
-0.9383700E+00 -0.6339646E-05
-0.9378600E+00 -0.6415963E-05
-0.9373500E+00 -0.6493161E-05
-0.9368400E+00 -0.6571253E-05
-0.9363300E+00 -0.6650248E-05
-0.9358200E+00 -0.6730154E-05
-0.9353100E+00 -0.6810984E-05
-0.9348000E+00 -0.6892747E-05
-0.9342900E+00 -0.6975452E-05
-0.9337800E+00 -0.7059112E-05
-0.9332700E+00 -0.7143735E-05
-0.9327600E+00 -0.7229333E-05
-0.9322500E+00 -0.7315917E-05
-0.9317400E+00 -0.7403497E-05
-0.9312300E+00 -0.7492084E-05
-0.9307200E+00 -0.7581689E-05
-0.9302100E+00 -0.7672325E-05
-0.9297000E+00 -0.7764001E-05
-0.9291900E+00 -0.7856729E-05
-0.9286800E+00 -0.7950522E-05
-0.9281700E+00 -0.8045389E-05
-0.9276600E+00 -0.8141345E-05
-0.9271500E+00 -0.8238399E-05
-0.9266400E+00 -0.8336565E-05
-0.9261300E+00 -0.8435854E-05
-0.9256200E+00 -0.8536279E-05
-0.9251100E+00 -0.8637851E-05
-0.9246000E+00 -0.8740585E-05
-0.9240900E+00 -0.8844492E-05
-0.9235800E+00 -0.8949585E-05
-0.9230700E+00 -0.9055877E-05
-0.9225600E+00 -0.9163381E-05
-0.9220500E+00 -0.9272110E-05
-0.9215400E+00 -0.9382077E-05
-0.9210300E+00 -0.9493297E-05
-0.9205200E+00 -0.9605781E-05
-0.9200100E+00 -0.9719545E-05
-0.9195000E+00 -0.9834603E-05
-0.9189900E+00 -0.9950967E-05
-0.9184800E+00 -0.1006865E-04
-0.9179700E+00 -0.1018767E-04
-0.9174600E+00 -0.1030805E-04
-0.9169500E+00 -0.1042978E-04
-0.9164400E+00 -0.1055290E-04
-0.9159300E+00 -0.1067741E-04
-0.9154200E+00 -0.1080333E-04
-0.9149100E+00 -0.1093068E-04
-0.9144000E+00 -0.1105946E-04
-0.9138900E+00 -0.1118970E-04
-0.9133800E+00 -0.1132142E-04
-0.9128700E+00 -0.1145462E-04
-0.9123600E+00 -0.1158932E-04
-0.9118500E+00 -0.1172555E-04
-0.9113400E+00 -0.1186331E-04
-0.9108300E+00 -0.1200262E-04
-0.9103200E+00 -0.1214350E-04
-0.9098100E+00 -0.1228597E-04
-0.9093000E+00 -0.1243004E-04
-0.9087900E+00 -0.1257573E-04
-0.9082800E+00 -0.1272306E-04
-0.9077700E+00 -0.1287204E-04
-0.9072600E+00 -0.1302269E-04
-0.9067500E+00 -0.1317504E-04
-0.9062400E+00 -0.1332909E-04
-0.9057300E+00 -0.1348487E-04
-0.9052200E+00 -0.1364240E-04
-0.9047100E+00 -0.1380169E-04
-0.9042000E+00 -0.1396276E-04
-0.9036900E+00 -0.1412564E-04
-0.9031800E+00 -0.1429034E-04
-0.9026700E+00 -0.1445688E-04
-0.9021600E+00 -0.1462528E-04
-0.9016500E+00 -0.1479556E-04
-0.9011400E+00 -0.1496774E-04
-0.9006300E+00 -0.1514184E-04
-0.9001200E+00 -0.1531788E-04
-0.8996100E+00 -0.1549588E-04
-0.8991000E+00 -0.1567586E-04
-0.8985900E+00 -0.1585785E-04
-0.8980800E+00 -0.1604186E-04
-0.8975700E+00 -0.1622791E-04
-0.8970600E+00 -0.1641604E-04
-0.8965500E+00 -0.1660625E-04
-0.8960400E+00 -0.1679857E-04
-0.8955300E+00 -0.1699303E-04
-0.8950200E+00 -0.1718964E-04
-0.8945100E+00 -0.1738843E-04
-0.8940000E+00 -0.1758943E-04
-0.8934900E+00 -0.1779265E-04
-0.8929800E+00 -0.1799811E-04
-0.8924700E+00 -0.1820586E-04
-0.8919600E+00 -0.1841589E-04
-0.8914500E+00 -0.1862825E-04
-0.8909400E+00 -0.1884295E-04
-0.8904300E+00 -0.1906003E-04
-0.8899200E+00 -0.1927949E-04
-0.8894100E+00 -0.1950138E-04
-0.8889000E+00 -0.1972571E-04
-0.8883900E+00 -0.1995251E-04
-0.8878800E+00 -0.2018181E-04
-0.8873700E+00 -0.2041363E-04
-0.8868600E+00 -0.2064800E-04
-0.8863500E+00 -0.2088495E-04
-0.8858400E+00 -0.2112449E-04
-0.8853300E+00 -0.2136667E-04
-0.8848200E+00 -0.2161150E-04
-0.8843100E+00 -0.2185902E-04
-0.8838000E+00 -0.2210925E-04
-0.8832900E+00 -0.2236222E-04
-0.8827800E+00 -0.2261796E-04
-0.8822700E+00 -0.2287650E-04
-0.8817600E+00 -0.2313786E-04
-0.8812500E+00 -0.2340208E-04
-0.8807400E+00 -0.2366919E-04
-0.8802300E+00 -0.2393922E-04
-0.8797200E+00 -0.2421219E-04
-0.8792100E+00 -0.2448814E-04
-0.8787000E+00 -0.2476710E-04
-0.8781900E+00 -0.2504910E-04
-0.8776800E+00 -0.2533417E-04
-0.8771700E+00 -0.2562234E-04
-0.8766600E+00 -0.2591364E-04
-0.8761500E+00 -0.2620812E-04
-0.8756400E+00 -0.2650579E-04
-0.8751300E+00 -0.2680669E-04
-0.8746200E+00 -0.2711087E-04
-0.8741100E+00 -0.2741834E-04
-0.8736000E+00 -0.2772914E-04
-0.8730900E+00 -0.2804332E-04
-0.8725800E+00 -0.2836089E-04
-0.8720700E+00 -0.2868190E-04
-0.8715600E+00 -0.2900639E-04
-0.8710500E+00 -0.2933439E-04
-0.8705400E+00 -0.2966593E-04
-0.8700300E+00 -0.3000105E-04
-0.8695200E+00 -0.3033978E-04
-0.8690100E+00 -0.3068217E-04
-0.8685000E+00 -0.3102826E-04
-0.8679900E+00 -0.3137807E-04
-0.8674800E+00 -0.3173166E-04
-0.8669700E+00 -0.3208904E-04
-0.8664600E+00 -0.3245028E-04
-0.8659500E+00 -0.3281539E-04
-0.8654400E+00 -0.3318444E-04
-0.8649300E+00 -0.3355745E-04
-0.8644200E+00 -0.3393446E-04
-0.8639100E+00 -0.3431552E-04
-0.8634000E+00 -0.3470067E-04
-0.8628900E+00 -0.3508994E-04
-0.8623800E+00 -0.3548339E-04
-0.8618700E+00 -0.3588105E-04
-0.8613600E+00 -0.3628296E-04
-0.8608500E+00 -0.3668918E-04
-0.8603400E+00 -0.3709973E-04
-0.8598300E+00 -0.3751468E-04
-0.8593200E+00 -0.3793405E-04
-0.8588100E+00 -0.3835790E-04
-0.8583000E+00 -0.3878627E-04
-0.8577900E+00 -0.3921921E-04
-0.8572800E+00 -0.3965676E-04
-0.8567700E+00 -0.4009896E-04
-0.8562600E+00 -0.4054588E-04
-0.8557500E+00 -0.4099754E-04
-0.8552400E+00 -0.4145401E-04
-0.8547300E+00 -0.4191533E-04
-0.8542200E+00 -0.4238155E-04
-0.8537100E+00 -0.4285271E-04
-0.8532000E+00 -0.4332888E-04
-0.8526900E+00 -0.4381009E-04
-0.8521800E+00 -0.4429640E-04
-0.8516700E+00 -0.4478786E-04
-0.8511600E+00 -0.4528452E-04
-0.8506500E+00 -0.4578644E-04
-0.8501400E+00 -0.4629366E-04
-0.8496300E+00 -0.4680624E-04
-0.8491200E+00 -0.4732424E-04
-0.8486100E+00 -0.4784770E-04
-0.8481000E+00 -0.4837668E-04
-0.8475900E+00 -0.4891124E-04
-0.8470800E+00 -0.4945142E-04
-0.8465700E+00 -0.4999730E-04
-0.8460600E+00 -0.5054893E-04
-0.8455500E+00 -0.5110635E-04
-0.8450400E+00 -0.5166964E-04
-0.8445300E+00 -0.5223884E-04
-0.8440200E+00 -0.5281402E-04
-0.8435100E+00 -0.5339524E-04
-0.8430000E+00 -0.5398255E-04
-0.8424900E+00 -0.5457602E-04
-0.8419800E+00 -0.5517571E-04
-0.8414700E+00 -0.5578168E-04
-0.8409600E+00 -0.5639399E-04
-0.8404500E+00 -0.5701270E-04
-0.8399400E+00 -0.5763788E-04
-0.8394300E+00 -0.5826960E-04
-0.8389200E+00 -0.5890791E-04
-0.8384100E+00 -0.5955288E-04
-0.8379000E+00 -0.6020458E-04
-0.8373900E+00 -0.6086308E-04
-0.8368800E+00 -0.6152843E-04
-0.8363700E+00 -0.6220071E-04
-0.8358600E+00 -0.6288000E-04
-0.8353500E+00 -0.6356635E-04
-0.8348400E+00 -0.6425982E-04
-0.8343300E+00 -0.6496051E-04
-0.8338200E+00 -0.6566846E-04
-0.8333100E+00 -0.6638377E-04
-0.8328000E+00 -0.6710650E-04
-0.8322900E+00 -0.6783671E-04
-0.8317800E+00 -0.6857450E-04
-0.8312700E+00 -0.6931992E-04
-0.8307600E+00 -0.7007305E-04
-0.8302500E+00 -0.7083396E-04
-0.8297400E+00 -0.7160274E-04
-0.8292300E+00 -0.7237947E-04
-0.8287200E+00 -0.7316420E-04
-0.8282100E+00 -0.7395703E-04
-0.8277000E+00 -0.7475804E-04
-0.8271900E+00 -0.7556730E-04
-0.8266800E+00 -0.7638490E-04
-0.8261700E+00 -0.7721091E-04
-0.8256600E+00 -0.7804542E-04
-0.8251500E+00 -0.7888851E-04
-0.8246400E+00 -0.7974026E-04
-0.8241300E+00 -0.8060077E-04
-0.8236200E+00 -0.8147011E-04
-0.8231100E+00 -0.8234836E-04
-0.8226000E+00 -0.8323562E-04
-0.8220900E+00 -0.8413198E-04
-0.8215800E+00 -0.8503751E-04
-0.8210700E+00 -0.8595231E-04
-0.8205600E+00 -0.8687646E-04
-0.8200500E+00 -0.8781006E-04
-0.8195400E+00 -0.8875320E-04
-0.8190300E+00 -0.8970597E-04
-0.8185200E+00 -0.9066847E-04
-0.8180100E+00 -0.9164077E-04
-0.8175000E+00 -0.9262299E-04
-0.8169900E+00 -0.9361521E-04
-0.8164800E+00 -0.9461754E-04
-0.8159700E+00 -0.9563006E-04
-0.8154600E+00 -0.9665288E-04
-0.8149500E+00 -0.9768609E-04
-0.8144400E+00 -0.9872980E-04
-0.8139300E+00 -0.9978411E-04
-0.8134200E+00 -0.1008491E-03
-0.8129100E+00 -0.1019249E-03
-0.8124000E+00 -0.1030116E-03
-0.8118900E+00 -0.1041093E-03
-0.8113800E+00 -0.1052181E-03
-0.8108700E+00 -0.1063382E-03
-0.8103600E+00 -0.1074695E-03
-0.8098500E+00 -0.1086123E-03
-0.8093400E+00 -0.1097667E-03
-0.8088300E+00 -0.1109326E-03
-0.8083200E+00 -0.1121104E-03
-0.8078100E+00 -0.1133000E-03
-0.8073000E+00 -0.1145016E-03
-0.8067900E+00 -0.1157153E-03
-0.8062800E+00 -0.1169411E-03
-0.8057700E+00 -0.1181794E-03
-0.8052600E+00 -0.1194300E-03
-0.8047500E+00 -0.1206932E-03
-0.8042400E+00 -0.1219691E-03
-0.8037300E+00 -0.1232578E-03
-0.8032200E+00 -0.1245594E-03
-0.8027100E+00 -0.1258741E-03
-0.8022000E+00 -0.1272019E-03
-0.8016900E+00 -0.1285430E-03
-0.8011800E+00 -0.1298975E-03
-0.8006700E+00 -0.1312656E-03
-0.8001600E+00 -0.1326473E-03
-0.7996500E+00 -0.1340429E-03
-0.7991400E+00 -0.1354523E-03
-0.7986300E+00 -0.1368759E-03
-0.7981200E+00 -0.1383136E-03
-0.7976100E+00 -0.1397656E-03
-0.7971000E+00 -0.1412321E-03
-0.7965900E+00 -0.1427132E-03
-0.7960800E+00 -0.1442090E-03
-0.7955700E+00 -0.1457197E-03
-0.7950600E+00 -0.1472453E-03
-0.7945500E+00 -0.1487861E-03
-0.7940400E+00 -0.1503422E-03
-0.7935300E+00 -0.1519138E-03
-0.7930200E+00 -0.1535008E-03
-0.7925100E+00 -0.1551036E-03
-0.7920000E+00 -0.1567223E-03
-0.7914900E+00 -0.1583569E-03
-0.7909800E+00 -0.1600077E-03
-0.7904700E+00 -0.1616748E-03
-0.7899600E+00 -0.1633584E-03
-0.7894500E+00 -0.1650585E-03
-0.7889400E+00 -0.1667755E-03
-0.7884300E+00 -0.1685093E-03
-0.7879200E+00 -0.1702602E-03
-0.7874100E+00 -0.1720284E-03
-0.7869000E+00 -0.1738139E-03
-0.7863900E+00 -0.1756170E-03
-0.7858800E+00 -0.1774378E-03
-0.7853700E+00 -0.1792765E-03
-0.7848600E+00 -0.1811332E-03
-0.7843500E+00 -0.1830081E-03
-0.7838400E+00 -0.1849014E-03
-0.7833300E+00 -0.1868132E-03
-0.7828200E+00 -0.1887438E-03
-0.7823100E+00 -0.1906932E-03
-0.7818000E+00 -0.1926617E-03
-0.7812900E+00 -0.1946493E-03
-0.7807800E+00 -0.1966564E-03
-0.7802700E+00 -0.1986831E-03
-0.7797600E+00 -0.2007295E-03
-0.7792500E+00 -0.2027959E-03
-0.7787400E+00 -0.2048824E-03
-0.7782300E+00 -0.2069891E-03
-0.7777200E+00 -0.2091164E-03
-0.7772100E+00 -0.2112644E-03
-0.7767000E+00 -0.2134332E-03
-0.7761900E+00 -0.2156230E-03
-0.7756800E+00 -0.2178342E-03
-0.7751700E+00 -0.2200667E-03
-0.7746600E+00 -0.2223209E-03
-0.7741500E+00 -0.2245970E-03
-0.7736400E+00 -0.2268950E-03
-0.7731300E+00 -0.2292153E-03
-0.7726200E+00 -0.2315580E-03
-0.7721100E+00 -0.2339234E-03
-0.7716000E+00 -0.2363116E-03
-0.7710900E+00 -0.2387228E-03
-0.7705800E+00 -0.2411573E-03
-0.7700700E+00 -0.2436152E-03
-0.7695600E+00 -0.2460968E-03
-0.7690500E+00 -0.2486023E-03
-0.7685400E+00 -0.2511319E-03
-0.7680300E+00 -0.2536858E-03
-0.7675200E+00 -0.2562642E-03
-0.7670100E+00 -0.2588673E-03
-0.7665000E+00 -0.2614955E-03
-0.7659900E+00 -0.2641488E-03
-0.7654800E+00 -0.2668276E-03
-0.7649700E+00 -0.2695319E-03
-0.7644600E+00 -0.2722622E-03
-0.7639500E+00 -0.2750186E-03
-0.7634400E+00 -0.2778014E-03
-0.7629300E+00 -0.2806107E-03
-0.7624200E+00 -0.2834468E-03
-0.7619100E+00 -0.2863100E-03
-0.7614000E+00 -0.2892005E-03
-0.7608900E+00 -0.2921186E-03
-0.7603800E+00 -0.2950644E-03
-0.7598700E+00 -0.2980383E-03
-0.7593600E+00 -0.3010404E-03
-0.7588500E+00 -0.3040711E-03
-0.7583400E+00 -0.3071306E-03
-0.7578300E+00 -0.3102191E-03
-0.7573200E+00 -0.3133369E-03
-0.7568100E+00 -0.3164842E-03
-0.7563000E+00 -0.3196614E-03
-0.7557900E+00 -0.3228686E-03
-0.7552800E+00 -0.3261061E-03
-0.7547700E+00 -0.3293743E-03
-0.7542600E+00 -0.3326733E-03
-0.7537500E+00 -0.3360034E-03
-0.7532400E+00 -0.3393650E-03
-0.7527300E+00 -0.3427583E-03
-0.7522200E+00 -0.3461835E-03
-0.7517100E+00 -0.3496410E-03
-0.7512000E+00 -0.3531311E-03
-0.7506900E+00 -0.3566539E-03
-0.7501800E+00 -0.3602099E-03
-0.7496700E+00 -0.3637993E-03
-0.7491600E+00 -0.3674224E-03
-0.7486500E+00 -0.3710795E-03
-0.7481400E+00 -0.3747709E-03
-0.7476300E+00 -0.3784969E-03
-0.7471200E+00 -0.3822578E-03
-0.7466100E+00 -0.3860539E-03
-0.7461000E+00 -0.3898854E-03
-0.7455900E+00 -0.3937528E-03
-0.7450800E+00 -0.3976563E-03
-0.7445700E+00 -0.4015962E-03
-0.7440600E+00 -0.4055729E-03
-0.7435500E+00 -0.4095866E-03
-0.7430400E+00 -0.4136377E-03
-0.7425300E+00 -0.4177265E-03
-0.7420200E+00 -0.4218533E-03
-0.7415100E+00 -0.4260185E-03
-0.7410000E+00 -0.4302223E-03
-0.7404900E+00 -0.4344652E-03
-0.7399800E+00 -0.4387475E-03
-0.7394700E+00 -0.4430694E-03
-0.7389600E+00 -0.4474314E-03
-0.7384500E+00 -0.4518339E-03
-0.7379400E+00 -0.4562770E-03
-0.7374300E+00 -0.4607613E-03
-0.7369200E+00 -0.4652870E-03
-0.7364100E+00 -0.4698545E-03
-0.7359000E+00 -0.4744642E-03
-0.7353900E+00 -0.4791164E-03
-0.7348800E+00 -0.4838115E-03
-0.7343700E+00 -0.4885498E-03
-0.7338600E+00 -0.4933318E-03
-0.7333500E+00 -0.4981578E-03
-0.7328400E+00 -0.5030280E-03
-0.7323300E+00 -0.5079431E-03
-0.7318200E+00 -0.5129033E-03
-0.7313100E+00 -0.5179089E-03
-0.7308000E+00 -0.5229605E-03
-0.7302900E+00 -0.5280583E-03
-0.7297800E+00 -0.5332028E-03
-0.7292700E+00 -0.5383943E-03
-0.7287600E+00 -0.5436333E-03
-0.7282500E+00 -0.5489201E-03
-0.7277400E+00 -0.5542552E-03
-0.7272300E+00 -0.5596390E-03
-0.7267200E+00 -0.5650718E-03
-0.7262100E+00 -0.5705542E-03
-0.7257000E+00 -0.5760865E-03
-0.7251900E+00 -0.5816691E-03
-0.7246800E+00 -0.5873026E-03
-0.7241700E+00 -0.5929872E-03
-0.7236600E+00 -0.5987235E-03
-0.7231500E+00 -0.6045119E-03
-0.7226400E+00 -0.6103529E-03
-0.7221300E+00 -0.6162468E-03
-0.7216200E+00 -0.6221941E-03
-0.7211100E+00 -0.6281952E-03
-0.7206000E+00 -0.6342506E-03
-0.7200900E+00 -0.6403608E-03
-0.7195800E+00 -0.6465262E-03
-0.7190700E+00 -0.6527471E-03
-0.7185600E+00 -0.6590242E-03
-0.7180500E+00 -0.6653578E-03
-0.7175400E+00 -0.6717485E-03
-0.7170300E+00 -0.6781966E-03
-0.7165200E+00 -0.6847028E-03
-0.7160100E+00 -0.6912674E-03
-0.7155000E+00 -0.6978909E-03
-0.7149900E+00 -0.7045740E-03
-0.7144800E+00 -0.7113170E-03
-0.7139700E+00 -0.7181205E-03
-0.7134600E+00 -0.7249850E-03
-0.7129500E+00 -0.7319109E-03
-0.7124400E+00 -0.7388989E-03
-0.7119300E+00 -0.7459493E-03
-0.7114200E+00 -0.7530628E-03
-0.7109100E+00 -0.7602398E-03
-0.7104000E+00 -0.7674809E-03
-0.7098900E+00 -0.7747866E-03
-0.7093800E+00 -0.7821574E-03
-0.7088700E+00 -0.7895937E-03
-0.7083600E+00 -0.7970963E-03
-0.7078500E+00 -0.8046656E-03
-0.7073400E+00 -0.8123021E-03
-0.7068300E+00 -0.8200064E-03
-0.7063200E+00 -0.8277790E-03
-0.7058100E+00 -0.8356206E-03
-0.7053000E+00 -0.8435316E-03
-0.7047900E+00 -0.8515126E-03
-0.7042800E+00 -0.8595642E-03
-0.7037700E+00 -0.8676869E-03
-0.7032600E+00 -0.8758815E-03
-0.7027500E+00 -0.8841484E-03
-0.7022400E+00 -0.8924882E-03
-0.7017300E+00 -0.9009015E-03
-0.7012200E+00 -0.9093890E-03
-0.7007100E+00 -0.9179512E-03
-0.7002000E+00 -0.9265888E-03
-0.6996900E+00 -0.9353024E-03
-0.6991800E+00 -0.9440926E-03
-0.6986700E+00 -0.9529599E-03
-0.6981600E+00 -0.9619051E-03
-0.6976500E+00 -0.9709288E-03
-0.6971400E+00 -0.9800316E-03
-0.6966300E+00 -0.9892141E-03
-0.6961200E+00 -0.9984769E-03
-0.6956100E+00 -0.1007821E-02
-0.6951000E+00 -0.1017246E-02
-0.6945900E+00 -0.1026754E-02
-0.6940800E+00 -0.1036344E-02
-0.6935700E+00 -0.1046019E-02
-0.6930600E+00 -0.1055777E-02
-0.6925500E+00 -0.1065620E-02
-0.6920400E+00 -0.1075549E-02
-0.6915300E+00 -0.1085565E-02
-0.6910200E+00 -0.1095667E-02
-0.6905100E+00 -0.1105857E-02