-0.1200000E+01  0.0000000E+00
-0.1199490E+01  0.2038053E-16
-0.1198980E+01 -0.2929028E-14
-0.1198470E+01 -0.1369821E-13
-0.1197960E+01 -0.3792694E-13
-0.1197450E+01 -0.8108934E-13
-0.1196940E+01 -0.1477017E-12
-0.1196430E+01 -0.2407307E-12
-0.1195920E+01 -0.3612257E-12
-0.1195410E+01 -0.5081791E-12
-0.1194900E+01 -0.6786057E-12
-0.1194390E+01 -0.8678127E-12
-0.1193880E+01 -0.1069821E-11
-0.1193370E+01 -0.1277888E-11
-0.1192860E+01 -0.1485083E-11
-0.1192350E+01 -0.1684850E-11
-0.1191840E+01 -0.1871522E-11
-0.1191330E+01 -0.2040731E-11
-0.1190820E+01 -0.2189701E-11
-0.1190310E+01 -0.2317382E-11
-0.1189800E+01 -0.2424439E-11
-0.1189290E+01 -0.2513104E-11
-0.1188780E+01 -0.2586897E-11
-0.1188270E+01 -0.2650259E-11
-0.1187760E+01 -0.2708131E-11
-0.1187250E+01 -0.2765513E-11
-0.1186740E+01 -0.2827038E-11
-0.1186230E+01 -0.2896610E-11
-0.1185720E+01 -0.2977116E-11
-0.1185210E+01 -0.3070246E-11
-0.1184700E+01 -0.3176415E-11
-0.1184190E+01 -0.3294804E-11
-0.1183680E+01 -0.3423504E-11
-0.1183170E+01 -0.3559734E-11
-0.1182660E+01 -0.3700131E-11
-0.1182150E+01 -0.3841065E-11
-0.1181640E+01 -0.3978966E-11
-0.1181130E+01 -0.4110618E-11
-0.1180620E+01 -0.4233415E-11
-0.1180110E+01 -0.4345551E-11
-0.1179600E+01 -0.4446125E-11
-0.1179090E+01 -0.4535167E-11
-0.1178580E+01 -0.4613587E-11
-0.1178070E+01 -0.4683046E-11
-0.1177560E+01 -0.4745775E-11
-0.1177050E+01 -0.4804350E-11
-0.1176540E+01 -0.4861457E-11
-0.1176030E+01 -0.4919651E-11
-0.1175520E+01 -0.4981147E-11
-0.1175010E+01 -0.5047646E-11
-0.1174500E+01 -0.5120218E-11
-0.1173990E+01 -0.5199238E-11
-0.1173480E+01 -0.5284395E-11
-0.1172970E+01 -0.5374749E-11
-0.1172460E+01 -0.5468846E-11
-0.1171950E+01 -0.5564869E-11
-0.1171440E+01 -0.5660814E-11
-0.1170930E+01 -0.5754672E-11
-0.1170420E+01 -0.5844606E-11
-0.1169910E+01 -0.5929101E-11
-0.1169400E+01 -0.6007086E-11
-0.1168890E+01 -0.6078010E-11
-0.1168380E+01 -0.6141868E-11
-0.1167870E+01 -0.6199182E-11
-0.1167360E+01 -0.6250942E-11
-0.1166850E+01 -0.6298504E-11
-0.1166340E+01 -0.6343462E-11
-0.1165830E+01 -0.6387512E-11
-0.1165320E+01 -0.6432300E-11
-0.1164810E+01 -0.6479295E-11
-0.1164300E+01 -0.6529671E-11
-0.1163790E+01 -0.6584219E-11
-0.1163280E+01 -0.6643300E-11
-0.1162770E+01 -0.6706829E-11
-0.1162260E+01 -0.6774296E-11
-0.1161750E+01 -0.6844828E-11
-0.1161240E+01 -0.6917269E-11
-0.1160730E+01 -0.6990286E-11
-0.1160220E+01 -0.7062480E-11
-0.1159710E+01 -0.7132505E-11
-0.1159200E+01 -0.7199172E-11
-0.1158690E+01 -0.7261539E-11
-0.1158180E+01 -0.7318974E-11
-0.1157670E+01 -0.7371201E-11
-0.1157160E+01 -0.7418299E-11
-0.1156650E+01 -0.7460689E-11
-0.1156140E+01 -0.7499088E-11
-0.1155630E+01 -0.7534439E-11
-0.1155120E+01 -0.7567829E-11
-0.1154610E+01 -0.7600399E-11
-0.1154100E+01 -0.7633257E-11
-0.1153590E+01 -0.7667388E-11
-0.1153080E+01 -0.7703586E-11
-0.1152570E+01 -0.7742403E-11
-0.1152060E+01 -0.7784116E-11
-0.1151550E+01 -0.7828716E-11
-0.1151040E+01 -0.7875925E-11
-0.1150530E+01 -0.7925226E-11
-0.1150020E+01 -0.7975917E-11
-0.1149510E+01 -0.8027173E-11
-0.1149000E+01 -0.8078114E-11
-0.1148490E+01 -0.8127876E-11
-0.1147980E+01 -0.8175676E-11
-0.1147470E+01 -0.8220871E-11
-0.1146960E+01 -0.8262998E-11
-0.1146450E+01 -0.8301804E-11
-0.1145940E+01 -0.8337254E-11
-0.1145430E+01 -0.8369530E-11
-0.1144920E+01 -0.8399000E-11
-0.1144410E+01 -0.8426190E-11
-0.1143900E+01 -0.8451736E-11
-0.1143390E+01 -0.8476331E-11
-0.1142880E+01 -0.8500675E-11
-0.1142370E+01 -0.8525422E-11
-0.1141860E+01 -0.8551134E-11
-0.1141350E+01 -0.8578247E-11
-0.1140840E+01 -0.8607046E-11
-0.1140330E+01 -0.8637650E-11
-0.1139820E+01 -0.8670014E-11
-0.1139310E+01 -0.8703941E-11
-0.1138800E+01 -0.8739102E-11
-0.1138290E+01 -0.8775067E-11
-0.1137780E+01 -0.8811343E-11
-0.1137270E+01 -0.8847409E-11
-0.1136760E+01 -0.8882757E-11
-0.1136250E+01 -0.8916923E-11
-0.1135740E+01 -0.8949523E-11
-0.1135230E+01 -0.8980271E-11
-0.1134720E+01 -0.9008994E-11
-0.1134210E+01 -0.9035641E-11
-0.1133700E+01 -0.9060276E-11
-0.1133190E+01 -0.9083069E-11
-0.1132680E+01 -0.9104281E-11
-0.1132170E+01 -0.9124238E-11
-0.1131660E+01 -0.9143309E-11
-0.1131150E+01 -0.9161880E-11
-0.1130640E+01 -0.9180321E-11
-0.1130130E+01 -0.9198975E-11
-0.1129620E+01 -0.9218126E-11
-0.1129110E+01 -0.9237991E-11
-0.1128600E+01 -0.9258709E-11
-0.1128090E+01 -0.9280334E-11
-0.1127580E+01 -0.9302842E-11
-0.1127070E+01 -0.9326132E-11
-0.1126560E+01 -0.9350039E-11
-0.1126050E+01 -0.9374349E-11
-0.1125540E+01 -0.9398813E-11
-0.1125030E+01 -0.9423165E-11
-0.1124520E+01 -0.9447140E-11
-0.1124010E+01 -0.9470486E-11
-0.1123500E+01 -0.9492984E-11
-0.1122990E+01 -0.9514454E-11
-0.1122480E+01 -0.9534770E-11
-0.1121970E+01 -0.9553856E-11
-0.1121460E+01 -0.9571698E-11
-0.1120950E+01 -0.9588334E-11
-0.1120440E+01 -0.9603858E-11
-0.1119930E+01 -0.9618404E-11
-0.1119420E+01 -0.9632148E-11
-0.1118910E+01 -0.9645286E-11
-0.1118400E+01 -0.9658035E-11
-0.1117890E+01 -0.9670610E-11
-0.1117380E+01 -0.9683220E-11
-0.1116870E+01 -0.9696056E-11
-0.1116360E+01 -0.9709280E-11
-0.1115850E+01 -0.9723018E-11
-0.1115340E+01 -0.9737352E-11
-0.1114830E+01 -0.9752322E-11
-0.1114320E+01 -0.9767919E-11
-0.1113810E+01 -0.9784088E-11
-0.1113300E+01 -0.9800733E-11
-0.1112790E+01 -0.9817720E-11
-0.1112280E+01 -0.9834884E-11
-0.1111770E+01 -0.9852043E-11
-0.1111260E+01 -0.9869002E-11
-0.1110750E+01 -0.9885570E-11
-0.1110240E+01 -0.9901563E-11
-0.1109730E+01 -0.9916823E-11
-0.1109220E+01 -0.9931221E-11
-0.1108710E+01 -0.9944668E-11
-0.1108200E+01 -0.9957120E-11
-0.1107690E+01 -0.9968579E-11
-0.1107180E+01 -0.9979095E-11
-0.1106670E+01 -0.9988763E-11
-0.1106160E+01 -0.9997719E-11
-0.1105650E+01 -0.1000613E-10
-0.1105140E+01 -0.1001418E-10
-0.1104630E+01 -0.1002209E-10
-0.1104120E+01 -0.1003003E-10
-0.1103610E+01 -0.1003821E-10
-0.1103100E+01 -0.1004678E-10
-0.1102590E+01 -0.1005588E-10
-0.1102080E+01 -0.1006558E-10
-0.1101570E+01 -0.1007592E-10
-0.1101060E+01 -0.1008689E-10
-0.1100550E+01 -0.1009842E-10
-0.1100040E+01 -0.1011040E-10
-0.1099530E+01 -0.1012268E-10
-0.1099020E+01 -0.1013507E-10
-0.1098510E+01 -0.1014738E-10
-0.1098000E+01 -0.1015941E-10
-0.1097490E+01 -0.1017096E-10
-0.1096980E+01 -0.1018185E-10
-0.1096470E+01 -0.1019194E-10
-0.1095960E+01 -0.1020113E-10
-0.1095450E+01 -0.1020937E-10
-0.1094940E+01 -0.1021667E-10
-0.1094430E+01 -0.1022308E-10
-0.1093920E+01 -0.1022870E-10
-0.1093410E+01 -0.1023368E-10
-0.1092900E+01 -0.1023821E-10
-0.1092390E+01 -0.1024249E-10
-0.1091880E+01 -0.1024674E-10
-0.1091370E+01 -0.1025117E-10
-0.1090860E+01 -0.1025597E-10
-0.1090350E+01 -0.1026130E-10
-0.1089840E+01 -0.1026728E-10
-0.1089330E+01 -0.1027398E-10
-0.1088820E+01 -0.1028143E-10
-0.1088310E+01 -0.1028959E-10
-0.1087800E+01 -0.1029837E-10
-0.1087290E+01 -0.1030764E-10
-0.1086780E+01 -0.1031722E-10
-0.1086270E+01 -0.1032693E-10
-0.1085760E+01 -0.1033654E-10
-0.1085250E+01 -0.1034585E-10
-0.1084740E+01 -0.1035467E-10
-0.1084230E+01 -0.1036282E-10
-0.1083720E+01 -0.1037017E-10
-0.1083210E+01 -0.1037664E-10
-0.1082700E+01 -0.1038219E-10
-0.1082190E+01 -0.1038684E-10
-0.1081680E+01 -0.1039065E-10
-0.1081170E+01 -0.1039376E-10
-0.1080660E+01 -0.1039630E-10
-0.1080150E+01 -0.1039846E-10
-0.1079640E+01 -0.1040045E-10
-0.1079130E+01 -0.1040247E-10
-0.1078620E+01 -0.1040471E-10
-0.1078110E+01 -0.1040734E-10
-0.1077600E+01 -0.1041052E-10
-0.1077090E+01 -0.1041433E-10
-0.1076580E+01 -0.1041883E-10
-0.1076070E+01 -0.1042401E-10
-0.1075560E+01 -0.1042985E-10
-0.1075050E+01 -0.1043623E-10
-0.1074540E+01 -0.1044303E-10
-0.1074030E+01 -0.1045008E-10
-0.1073520E+01 -0.1045719E-10
-0.1073010E+01 -0.1046419E-10
-0.1072500E+01 -0.1047088E-10
-0.1071990E+01 -0.1047709E-10
-0.1071480E+01 -0.1048267E-10
-0.1070970E+01 -0.1048754E-10
-0.1070460E+01 -0.1049161E-10
-0.1069950E+01 -0.1049488E-10
-0.1069440E+01 -0.1049738E-10
-0.1068930E+01 -0.1049919E-10
-0.1068420E+01 -0.1050042E-10
-0.1067910E+01 -0.1050123E-10
-0.1067400E+01 -0.1050180E-10
-0.1066890E+01 -0.1050231E-10
-0.1066380E+01 -0.1050295E-10
-0.1065870E+01 -0.1050389E-10
-0.1065360E+01 -0.1050529E-10
-0.1064850E+01 -0.1050727E-10
-0.1064340E+01 -0.1050991E-10
-0.1063830E+01 -0.1051325E-10
-0.1063320E+01 -0.1051727E-10
-0.1062810E+01 -0.1052193E-10
-0.1062300E+01 -0.1052712E-10
-0.1061790E+01 -0.1053270E-10
-0.1061280E+01 -0.1053850E-10
-0.1060770E+01 -0.1054435E-10
-0.1060260E+01 -0.1055006E-10
-0.1059750E+01 -0.1055544E-10
-0.1059240E+01 -0.1056031E-10
-0.1058730E+01 -0.1056455E-10
-0.1058220E+01 -0.1056805E-10
-0.1057710E+01 -0.1057074E-10
-0.1057200E+01 -0.1057261E-10
-0.1056690E+01 -0.1057369E-10
-0.1056180E+01 -0.1057406E-10
-0.1055670E+01 -0.1057385E-10
-0.1055160E+01 -0.1057320E-10
-0.1054650E+01 -0.1057231E-10
-0.1054140E+01 -0.1057135E-10
-0.1053630E+01 -0.1057054E-10
-0.1053120E+01 -0.1057005E-10
-0.1052610E+01 -0.1057005E-10
-0.1052100E+01 -0.1057067E-10
-0.1051590E+01 -0.1057200E-10
-0.1051080E+01 -0.1057409E-10
-0.1050570E+01 -0.1057694E-10
-0.1050060E+01 -0.1058048E-10
-0.1049550E+01 -0.1058462E-10
-0.1049040E+01 -0.1058922E-10
-0.1048530E+01 -0.1059410E-10
-0.1048020E+01 -0.1059907E-10
-0.1047510E+01 -0.1060393E-10
-0.1047000E+01 -0.1060847E-10
-0.1046490E+01 -0.1061251E-10
-0.1045980E+01 -0.1061589E-10
-0.1045470E+01 -0.1061851E-10
-0.1044960E+01 -0.1062029E-10
-0.1044450E+01 -0.1062122E-10
-0.1043940E+01 -0.1062132E-10
-0.1043430E+01 -0.1062069E-10
-0.1042920E+01 -0.1061945E-10
-0.1042410E+01 -0.1061779E-10
-0.1041900E+01 -0.1061590E-10
-0.1041390E+01 -0.1061399E-10
-0.1040880E+01 -0.1061228E-10
-0.1040370E+01 -0.1061097E-10
-0.1039860E+01 -0.1061025E-10
-0.1039350E+01 -0.1061025E-10
-0.1038840E+01 -0.1061106E-10
-0.1038330E+01 -0.1061272E-10
-0.1037820E+01 -0.1061522E-10
-0.1037310E+01 -0.1061847E-10
-0.1036800E+01 -0.1062236E-10
-0.1036290E+01 -0.1062670E-10
-0.1035780E+01 -0.1063129E-10
-0.1035270E+01 -0.1063591E-10
-0.1034760E+01 -0.1064032E-10
-0.1034250E+01 -0.1064430E-10
-0.1033740E+01 -0.1064764E-10
-0.1033230E+01 -0.1065020E-10
-0.1032720E+01 -0.1065184E-10
-0.1032210E+01 -0.1065253E-10
-0.1031700E+01 -0.1065227E-10
-0.1031190E+01 -0.1065112E-10
-0.1030680E+01 -0.1064922E-10
-0.1030170E+01 -0.1064673E-10
-0.1029660E+01 -0.1064389E-10
-0.1029150E+01 -0.1064092E-10
-0.1028640E+01 -0.1063808E-10
-0.1028130E+01 -0.1063561E-10
-0.1027620E+01 -0.1063374E-10
-0.1027110E+01 -0.1063265E-10
-0.1026600E+01 -0.1063246E-10
-0.1026090E+01 -0.1063326E-10
-0.1025580E+01 -0.1063504E-10
-0.1025070E+01 -0.1063773E-10
-0.1024560E+01 -0.1064122E-10
-0.1024050E+01 -0.1064532E-10
-0.1023540E+01 -0.1064980E-10
-0.1023030E+01 -0.1065440E-10
-0.1022520E+01 -0.1065887E-10
-0.1022010E+01 -0.1066293E-10
-0.1021500E+01 -0.1066635E-10
-0.1020990E+01 -0.1066893E-10
-0.1020480E+01 -0.1067052E-10
-0.1019970E+01 -0.1067105E-10
-0.1019460E+01 -0.1067051E-10
-0.1018950E+01 -0.1066895E-10
-0.1018440E+01 -0.1066651E-10
-0.1017930E+01 -0.1066339E-10
-0.1017420E+01 -0.1065981E-10
-0.1016910E+01 -0.1065606E-10
-0.1016400E+01 -0.1065241E-10
-0.1015890E+01 -0.1064915E-10
-0.1015380E+01 -0.1064653E-10
-0.1014870E+01 -0.1064477E-10
-0.1014360E+01 -0.1064401E-10
-0.1013850E+01 -0.1064435E-10
-0.1013340E+01 -0.1064579E-10
-0.1012830E+01 -0.1064828E-10
-0.1012320E+01 -0.1065168E-10
-0.1011810E+01 -0.1065578E-10
-0.1011300E+01 -0.1066034E-10
-0.1010790E+01 -0.1066506E-10
-0.1010280E+01 -0.1066965E-10
-0.1009770E+01 -0.1067381E-10
-0.1009260E+01 -0.1067728E-10
-0.1008750E+01 -0.1067984E-10
-0.1008240E+01 -0.1068131E-10
-0.1007730E+01 -0.1068160E-10
-0.1007220E+01 -0.1068072E-10
-0.1006710E+01 -0.1067871E-10
-0.1006200E+01 -0.1067574E-10
-0.1005690E+01 -0.1067200E-10
-0.1005180E+01 -0.1066777E-10
-0.1004670E+01 -0.1066335E-10
-0.1004160E+01 -0.1065903E-10
-0.1003650E+01 -0.1065515E-10
-0.1003140E+01 -0.1065197E-10
-0.1002630E+01 -0.1064972E-10
-0.1002120E+01 -0.1064858E-10
-0.1001610E+01 -0.1064863E-10
-0.1001100E+01 -0.1064990E-10
-0.1000590E+01 -0.1065230E-10
-0.1000080E+01 -0.1065569E-10
-0.9995700E+00 -0.1065984E-10
-0.9990600E+00 -0.1066448E-10
-0.9985500E+00 -0.1066930E-10
-0.9980400E+00 -0.1067398E-10
-0.9975300E+00 -0.1067820E-10
-0.9970200E+00 -0.1068166E-10
-0.9965100E+00 -0.1068414E-10
-0.9960000E+00 -0.1068547E-10
-0.9954900E+00 -0.1068554E-10
-0.9949800E+00 -0.1068435E-10
-0.9944700E+00 -0.1068198E-10
-0.9939600E+00 -0.1067859E-10
-0.9934500E+00 -0.1067441E-10
-0.9929400E+00 -0.1066971E-10
-0.9924300E+00 -0.1066483E-10
-0.9919200E+00 -0.1066008E-10
-0.9914100E+00 -0.1065581E-10
-0.9909000E+00 -0.1065229E-10
-0.9903900E+00 -0.1064976E-10
-0.9898800E+00 -0.1064842E-10
-0.9893700E+00 -0.1064833E-10
-0.9888600E+00 -0.1064952E-10
-0.9883500E+00 -0.1065190E-10
-0.9878400E+00 -0.1065531E-10
-0.9873300E+00 -0.1065951E-10
-0.9868200E+00 -0.1066421E-10
-0.9863100E+00 -0.1066910E-10
-0.9858000E+00 -0.1067383E-10
-0.9852900E+00 -0.1067809E-10
-0.9847800E+00 -0.1068156E-10
-0.9842700E+00 -0.1068402E-10
-0.9837600E+00 -0.1068529E-10
-0.9832500E+00 -0.1068528E-10
-0.9827400E+00 -0.1068398E-10
-0.9822300E+00 -0.1068148E-10
-0.9817200E+00 -0.1067794E-10
-0.9812100E+00 -0.1067360E-10
-0.9807000E+00 -0.1066874E-10
-0.9801900E+00 -0.1066370E-10
-0.9796800E+00 -0.1065879E-10
-0.9791700E+00 -0.1065436E-10
-0.9786600E+00 -0.1065069E-10
-0.9781500E+00 -0.1064802E-10
-0.9776400E+00 -0.1064652E-10
-0.9771300E+00 -0.1064628E-10
-0.9766200E+00 -0.1064730E-10
-0.9761100E+00 -0.1064950E-10
-0.9756000E+00 -0.1065271E-10
-0.9750900E+00 -0.1065669E-10
-0.9745800E+00 -0.1066117E-10
-0.9740700E+00 -0.1066582E-10
-0.9735600E+00 -0.1067031E-10
-0.9730500E+00 -0.1067433E-10
-0.9725400E+00 -0.1067757E-10
-0.9720300E+00 -0.1067982E-10
-0.9715200E+00 -0.1068091E-10
-0.9710100E+00 -0.1068076E-10
-0.9705000E+00 -0.1067935E-10
-0.9699900E+00 -0.1067678E-10
-0.9694800E+00 -0.1067322E-10
-0.9689700E+00 -0.1066888E-10
-0.9684600E+00 -0.1066406E-10
-0.9679500E+00 -0.1065907E-10
-0.9674400E+00 -0.1065423E-10
-0.9669300E+00 -0.1064986E-10
-0.9664200E+00 -0.1064623E-10
-0.9659100E+00 -0.1064357E-10
-0.9654000E+00 -0.1064204E-10
-0.9648900E+00 -0.1064174E-10
-0.9643800E+00 -0.1064265E-10
-0.9638700E+00 -0.1064470E-10
-0.9633600E+00 -0.1064772E-10
-0.9628500E+00 -0.1065150E-10
-0.9623400E+00 -0.1065575E-10
-0.9618300E+00 -0.1066018E-10
-0.9613200E+00 -0.1066447E-10
-0.9608100E+00 -0.1066832E-10
-0.9603000E+00 -0.1067145E-10
-0.9597900E+00 -0.1067365E-10
-0.9592800E+00 -0.1067474E-10
-0.9587700E+00 -0.1067466E-10
-0.9582600E+00 -0.1067340E-10
-0.9577500E+00 -0.1067102E-10
-0.9572400E+00 -0.1066770E-10
-0.9567300E+00 -0.1066362E-10
-0.9562200E+00 -0.1065907E-10
-0.9557100E+00 -0.1065432E-10
-0.9552000E+00 -0.1064968E-10
-0.9546900E+00 -0.1064545E-10
-0.9541800E+00 -0.1064188E-10
-0.9536700E+00 -0.1063919E-10
-0.9531600E+00 -0.1063753E-10
-0.9526500E+00 -0.1063700E-10
-0.9521400E+00 -0.1063759E-10
-0.9516300E+00 -0.1063924E-10
-0.9511200E+00 -0.1064181E-10
-0.9506100E+00 -0.1064510E-10
-0.9501000E+00 -0.1064887E-10
-0.9495900E+00 -0.1065284E-10
-0.9490800E+00 -0.1065671E-10
-0.9485700E+00 -0.1066022E-10
-0.9480600E+00 -0.1066310E-10
-0.9475500E+00 -0.1066515E-10
-0.9470400E+00 -0.1066622E-10
-0.9465300E+00 -0.1066622E-10
-0.9460200E+00 -0.1066514E-10
-0.9455100E+00 -0.1066303E-10
-0.9450000E+00 -0.1066002E-10
-0.9444900E+00 -0.1065629E-10
-0.9439800E+00 -0.1065208E-10
-0.9434700E+00 -0.1064765E-10
-0.9429600E+00 -0.1064326E-10
-0.9424500E+00 -0.1063920E-10
-0.9419400E+00 -0.1063569E-10
-0.9414300E+00 -0.1063295E-10
-0.9409200E+00 -0.1063114E-10
-0.9404100E+00 -0.1063033E-10
-0.9399000E+00 -0.1063057E-10
-0.9393900E+00 -0.1063179E-10
-0.9388800E+00 -0.1063390E-10
-0.9383700E+00 -0.1063673E-10
-0.9378600E+00 -0.1064007E-10
-0.9373500E+00 -0.1064368E-10
-0.9368400E+00 -0.1064729E-10
-0.9363300E+00 -0.1065066E-10
-0.9358200E+00 -0.1065354E-10
-0.9353100E+00 -0.1065573E-10
-0.9348000E+00 -0.1065708E-10
-0.9342900E+00 -0.1065748E-10
-0.9337800E+00 -0.1065691E-10
-0.9332700E+00 -0.1065537E-10
-0.9327600E+00 -0.1065297E-10
-0.9322500E+00 -0.1064984E-10
-0.9317400E+00 -0.1064617E-10
-0.9312300E+00 -0.1064220E-10
-0.9307200E+00 -0.1063814E-10
-0.9302100E+00 -0.1063426E-10
-0.9297000E+00 -0.1063076E-10
-0.9291900E+00 -0.1062787E-10
-0.9286800E+00 -0.1062573E-10
-0.9281700E+00 -0.1062445E-10
-0.9276600E+00 -0.1062408E-10
-0.9271500E+00 -0.1062462E-10
-0.9266400E+00 -0.1062600E-10
-0.9261300E+00 -0.1062810E-10
-0.9256200E+00 -0.1063075E-10
-0.9251100E+00 -0.1063374E-10
-0.9246000E+00 -0.1063687E-10
-0.9240900E+00 -0.1063990E-10
-0.9235800E+00 -0.1064261E-10
-0.9230700E+00 -0.1064480E-10
-0.9225600E+00 -0.1064631E-10
-0.9220500E+00 -0.1064703E-10
-0.9215400E+00 -0.1064688E-10
-0.9210300E+00 -0.1064586E-10
-0.9205200E+00 -0.1064402E-10
-0.9200100E+00 -0.1064146E-10
-0.9195000E+00 -0.1063832E-10
-0.9189900E+00 -0.1063478E-10
-0.9184800E+00 -0.1063106E-10
-0.9179700E+00 -0.1062736E-10
-0.9174600E+00 -0.1062391E-10
-0.9169500E+00 -0.1062089E-10
-0.9164400E+00 -0.1061849E-10
-0.9159300E+00 -0.1061682E-10
-0.9154200E+00 -0.1061598E-10
-0.9149100E+00 -0.1061598E-10
-0.9144000E+00 -0.1061680E-10
-0.9138900E+00 -0.1061837E-10
-0.9133800E+00 -0.1062055E-10
-0.9128700E+00 -0.1062320E-10
-0.9123600E+00 -0.1062610E-10
-0.9118500E+00 -0.1062907E-10
-0.9113400E+00 -0.1063187E-10
-0.9108300E+00 -0.1063433E-10
-0.9103200E+00 -0.1063625E-10
-0.9098100E+00 -0.1063750E-10
-0.9093000E+00 -0.1063797E-10
-0.9087900E+00 -0.1063763E-10
-0.9082800E+00 -0.1063646E-10
-0.9077700E+00 -0.1063452E-10
-0.9072600E+00 -0.1063193E-10
-0.9067500E+00 -0.1062881E-10
-0.9062400E+00 -0.1062535E-10
-0.9057300E+00 -0.1062174E-10
-0.9052200E+00 -0.1061820E-10
-0.9047100E+00 -0.1061492E-10
-0.9042000E+00 -0.1061208E-10
-0.9036900E+00 -0.1060984E-10
-0.9031800E+00 -0.1060832E-10
-0.9026700E+00 -0.1060759E-10
-0.9021600E+00 -0.1060766E-10
-0.9016500E+00 -0.1060850E-10
-0.9011400E+00 -0.1061004E-10
-0.9006300E+00 -0.1061214E-10
-0.9001200E+00 -0.1061464E-10
-0.8996100E+00 -0.1061736E-10
-0.8991000E+00 -0.1062010E-10
-0.8985900E+00 -0.1062264E-10
-0.8980800E+00 -0.1062482E-10
-0.8975700E+00 -0.1062644E-10
-0.8970600E+00 -0.1062740E-10
-0.8965500E+00 -0.1062760E-10
-0.8960400E+00 -0.1062700E-10
-0.8955300E+00 -0.1062562E-10
-0.8950200E+00 -0.1062352E-10
-0.8945100E+00 -0.1062081E-10
-0.8940000E+00 -0.1061765E-10
-0.8934900E+00 -0.1061421E-10
-0.8929800E+00 -0.1061069E-10
-0.8924700E+00 -0.1060730E-10
-0.8919600E+00 -0.1060423E-10
-0.8914500E+00 -0.1060166E-10
-0.8909400E+00 -0.1059974E-10
-0.8904300E+00 -0.1059857E-10
-0.8899200E+00 -0.1059820E-10
-0.8894100E+00 -0.1059864E-10
-0.8889000E+00 -0.1059983E-10
-0.8883900E+00 -0.1060169E-10
-0.8878800E+00 -0.1060406E-10
-0.8873700E+00 -0.1060678E-10
-0.8868600E+00 -0.1060964E-10
-0.8863500E+00 -0.1061243E-10
-0.8858400E+00 -0.1061496E-10
-0.8853300E+00 -0.1061702E-10
-0.8848200E+00 -0.1061847E-10
-0.8843100E+00 -0.1061917E-10
-0.8838000E+00 -0.1061906E-10
-0.8832900E+00 -0.1061812E-10
-0.8827800E+00 -0.1061637E-10
-0.8822700E+00 -0.1061391E-10
-0.8817600E+00 -0.1061087E-10
-0.8812500E+00 -0.1060741E-10
-0.8807400E+00 -0.1060373E-10
-0.8802300E+00 -0.1060005E-10
-0.8797200E+00 -0.1059658E-10
-0.8792100E+00 -0.1059351E-10
-0.8787000E+00 -0.1059103E-10
-0.8781900E+00 -0.1058926E-10
-0.8776800E+00 -0.1058831E-10
-0.8771700E+00 -0.1058820E-10
-0.8766600E+00 -0.1058892E-10
-0.8761500E+00 -0.1059039E-10
-0.8756400E+00 -0.1059250E-10
-0.8751300E+00 -0.1059507E-10
-0.8746200E+00 -0.1059793E-10
-0.8741100E+00 -0.1060084E-10
-0.8736000E+00 -0.1060361E-10
-0.8730900E+00 -0.1060600E-10
-0.8725800E+00 -0.1060786E-10
-0.8720700E+00 -0.1060901E-10
-0.8715600E+00 -0.1060937E-10
-0.8710500E+00 -0.1060889E-10
-0.8705400E+00 -0.1060756E-10
-0.8700300E+00 -0.1060545E-10
-0.8695200E+00 -0.1060267E-10
-0.8690100E+00 -0.1059938E-10
-0.8685000E+00 -0.1059578E-10
-0.8679900E+00 -0.1059208E-10
-0.8674800E+00 -0.1058850E-10
-0.8669700E+00 -0.1058525E-10
-0.8664600E+00 -0.1058252E-10
-0.8659500E+00 -0.1058049E-10
-0.8654400E+00 -0.1057924E-10
-0.8649300E+00 -0.1057886E-10
-0.8644200E+00 -0.1057934E-10
-0.8639100E+00 -0.1058062E-10
-0.8634000E+00 -0.1058260E-10
-0.8628900E+00 -0.1058513E-10
-0.8623800E+00 -0.1058800E-10
-0.8618700E+00 -0.1059102E-10
-0.8613600E+00 -0.1059394E-10
-0.8608500E+00 -0.1059655E-10
-0.8603400E+00 -0.1059865E-10
-0.8598300E+00 -0.1060006E-10
-0.8593200E+00 -0.1060068E-10
-0.8588100E+00 -0.1060042E-10
-0.8583000E+00 -0.1059928E-10
-0.8577900E+00 -0.1059730E-10
-0.8572800E+00 -0.1059458E-10
-0.8567700E+00 -0.1059128E-10
-0.8562600E+00 -0.1058758E-10
-0.8557500E+00 -0.1058371E-10
-0.8552400E+00 -0.1057989E-10
-0.8547300E+00 -0.1057635E-10
-0.8542200E+00 -0.1057331E-10
-0.8537100E+00 -0.1057093E-10
-0.8532000E+00 -0.1056935E-10
-0.8526900E+00 -0.1056864E-10
-0.8521800E+00 -0.1056884E-10
-0.8516700E+00 -0.1056990E-10
-0.8511600E+00 -0.1057172E-10
-0.8506500E+00 -0.1057416E-10
-0.8501400E+00 -0.1057703E-10
-0.8496300E+00 -0.1058012E-10
-0.8491200E+00 -0.1058318E-10
-0.8486100E+00 -0.1058599E-10
-0.8481000E+00 -0.1058834E-10
-0.8475900E+00 -0.1059005E-10
-0.8470800E+00 -0.1059096E-10
-0.8465700E+00 -0.1059100E-10
-0.8460600E+00 -0.1059014E-10
-0.8455500E+00 -0.1058841E-10
-0.8450400E+00 -0.1058590E-10
-0.8445300E+00 -0.1058274E-10
-0.8440200E+00 -0.1057914E-10
-0.8435100E+00 -0.1057529E-10
-0.8430000E+00 -0.1057145E-10
-0.8424900E+00 -0.1056783E-10
-0.8419800E+00 -0.1056466E-10
-0.8414700E+00 -0.1056212E-10
-0.8409600E+00 -0.1056036E-10
-0.8404500E+00 -0.1055948E-10
-0.8399400E+00 -0.1055950E-10
-0.8394300E+00 -0.1056041E-10
-0.8389200E+00 -0.1056211E-10
-0.8384100E+00 -0.1056447E-10
-0.8379000E+00 -0.1056730E-10
-0.8373900E+00 -0.1057039E-10
-0.8368800E+00 -0.1057350E-10
-0.8363700E+00 -0.1057641E-10
-0.8358600E+00 -0.1057887E-10
-0.8353500E+00 -0.1058072E-10
-0.8348400E+00 -0.1058178E-10
-0.8343300E+00 -0.1058197E-10
-0.8338200E+00 -0.1058125E-10
-0.8333100E+00 -0.1057962E-10
-0.8328000E+00 -0.1057719E-10
-0.8322900E+00 -0.1057407E-10
-0.8317800E+00 -0.1057045E-10
-0.8312700E+00 -0.1056655E-10
-0.8307600E+00 -0.1056261E-10
-0.8302500E+00 -0.1055884E-10
-0.8297400E+00 -0.1055549E-10
-0.8292300E+00 -0.1055275E-10
-0.8287200E+00 -0.1055078E-10
-0.8282100E+00 -0.1054968E-10
-0.8277000E+00 -0.1054949E-10
-0.8271900E+00 -0.1055021E-10
-0.8266800E+00 -0.1055176E-10
-0.8261700E+00 -0.1055400E-10
-0.8256600E+00 -0.1055677E-10
-0.8251500E+00 -0.1055984E-10
-0.8246400E+00 -0.1056298E-10
-0.8241300E+00 -0.1056597E-10
-0.8236200E+00 -0.1056857E-10
-0.8231100E+00 -0.1057057E-10
-0.8226000E+00 -0.1057183E-10
-0.8220900E+00 -0.1057224E-10
-0.8215800E+00 -0.1057173E-10
-0.8210700E+00 -0.1057032E-10
-0.8205600E+00 -0.1056808E-10
-0.8200500E+00 -0.1056514E-10
-0.8195400E+00 -0.1056167E-10
-0.8190300E+00 -0.1055788E-10
-0.8185200E+00 -0.1055399E-10
-0.8180100E+00 -0.1055025E-10
-0.8175000E+00 -0.1054689E-10
-0.8169900E+00 -0.1054409E-10
-0.8164800E+00 -0.1054203E-10
-0.8159700E+00 -0.1054082E-10
-0.8154600E+00 -0.1054051E-10
-0.8149500E+00 -0.1054110E-10
-0.8144400E+00 -0.1054251E-10
-0.8139300E+00 -0.1054464E-10
-0.8134200E+00 -0.1054731E-10
-0.8129100E+00 -0.1055030E-10
-0.8124000E+00 -0.1055340E-10
-0.8118900E+00 -0.1055636E-10
-0.8113800E+00 -0.1055897E-10
-0.8108700E+00 -0.1056101E-10
-0.8103600E+00 -0.1056233E-10
-0.8098500E+00 -0.1056280E-10
-0.8093400E+00 -0.1056237E-10
-0.8088300E+00 -0.1056104E-10
-0.8083200E+00 -0.1055888E-10
-0.8078100E+00 -0.1055600E-10
-0.8073000E+00 -0.1055257E-10
-0.8067900E+00 -0.1054880E-10
-0.8062800E+00 -0.1054490E-10
-0.8057700E+00 -0.1054113E-10
-0.8052600E+00 -0.1053770E-10
-0.8047500E+00 -0.1053481E-10
-0.8042400E+00 -0.1053264E-10
-0.8037300E+00 -0.1053131E-10
-0.8032200E+00 -0.1053087E-10
-0.8027100E+00 -0.1053132E-10
-0.8022000E+00 -0.1053262E-10
-0.8016900E+00 -0.1053464E-10
-0.8011800E+00 -0.1053722E-10
-0.8006700E+00 -0.1054016E-10
-0.8001600E+00 -0.1054323E-10
-0.7996500E+00 -0.1054620E-10
-0.7991400E+00 -0.1054885E-10
-0.7986300E+00 -0.1055097E-10
-0.7981200E+00 -0.1055239E-10
-0.7976100E+00 -0.1055300E-10
-0.7971000E+00 -0.1055272E-10
-0.7965900E+00 -0.1055155E-10
-0.7960800E+00 -0.1054954E-10
-0.7955700E+00 -0.1054682E-10
-0.7950600E+00 -0.1054353E-10
-0.7945500E+00 -0.1053987E-10
-0.7940400E+00 -0.1053607E-10
-0.7935300E+00 -0.1053236E-10
-0.7930200E+00 -0.1052896E-10
-0.7925100E+00 -0.1052607E-10
-0.7920000E+00 -0.1052386E-10
-0.7914900E+00 -0.1052246E-10
-0.7909800E+00 -0.1052193E-10
-0.7904700E+00 -0.1052229E-10
-0.7899600E+00 -0.1052346E-10
-0.7894500E+00 -0.1052537E-10
-0.7889400E+00 -0.1052783E-10
-0.7884300E+00 -0.1053067E-10
-0.7879200E+00 -0.1053366E-10
-0.7874100E+00 -0.1053658E-10
-0.7869000E+00 -0.1053919E-10
-0.7863900E+00 -0.1054131E-10
-0.7858800E+00 -0.1054275E-10
-0.7853700E+00 -0.1054340E-10
-0.7848600E+00 -0.1054318E-10
-0.7843500E+00 -0.1054209E-10
-0.7838400E+00 -0.1054017E-10
-0.7833300E+00 -0.1053753E-10
-0.7828200E+00 -0.1053432E-10
-0.7823100E+00 -0.1053073E-10
-0.7818000E+00 -0.1052697E-10
-0.7812900E+00 -0.1052327E-10
-0.7807800E+00 -0.1051986E-10
-0.7802700E+00 -0.1051693E-10
-0.7797600E+00 -0.1051466E-10
-0.7792500E+00 -0.1051316E-10
-0.7787400E+00 -0.1051252E-10
-0.7782300E+00 -0.1051275E-10
-0.7777200E+00 -0.1051379E-10
-0.7772100E+00 -0.1051556E-10
-0.7767000E+00 -0.1051791E-10
-0.7761900E+00 -0.1052066E-10
-0.7756800E+00 -0.1052358E-10
-0.7751700E+00 -0.1052646E-10
-0.7746600E+00 -0.1052908E-10
-0.7741500E+00 -0.1053124E-10
-0.7736400E+00 -0.1053277E-10
-0.7731300E+00 -0.1053354E-10
-0.7726200E+00 -0.1053348E-10
-0.7721100E+00 -0.1053257E-10
-0.7716000E+00 -0.1053084E-10
-0.7710900E+00 -0.1052840E-10
-0.7705800E+00 -0.1052537E-10
-0.7700700E+00 -0.1052195E-10
-0.7695600E+00 -0.1051833E-10
-0.7690500E+00 -0.1051473E-10
-0.7685400E+00 -0.1051137E-10
-0.7680300E+00 -0.1050844E-10
-0.7675200E+00 -0.1050612E-10
-0.7670100E+00 -0.1050453E-10
-0.7665000E+00 -0.1050375E-10
-0.7659900E+00 -0.1050379E-10
-0.7654800E+00 -0.1050464E-10
-0.7649700E+00 -0.1050620E-10
-0.7644600E+00 -0.1050833E-10
-0.7639500E+00 -0.1051087E-10
-0.7634400E+00 -0.1051361E-10
-0.7629300E+00 -0.1051636E-10
-0.7624200E+00 -0.1051889E-10
-0.7619100E+00 -0.1052101E-10
-0.7614000E+00 -0.1052255E-10
-0.7608900E+00 -0.1052339E-10
-0.7603800E+00 -0.1052346E-10
-0.7598700E+00 -0.1052271E-10
-0.7593600E+00 -0.1052119E-10
-0.7588500E+00 -0.1051896E-10
-0.7583400E+00 -0.1051616E-10
-0.7578300E+00 -0.1051295E-10
-0.7573200E+00 -0.1050952E-10
-0.7568100E+00 -0.1050607E-10
-0.7563000E+00 -0.1050282E-10
-0.7557900E+00 -0.1049994E-10
-0.7552800E+00 -0.1049761E-10
-0.7547700E+00 -0.1049594E-10
-0.7542600E+00 -0.1049503E-10
-0.7537500E+00 -0.1049491E-10
-0.7532400E+00 -0.1049554E-10
-0.7527300E+00 -0.1049686E-10
-0.7522200E+00 -0.1049876E-10
-0.7517100E+00 -0.1050106E-10
-0.7512000E+00 -0.1050360E-10
-0.7506900E+00 -0.1050618E-10
-0.7501800E+00 -0.1050859E-10
-0.7496700E+00 -0.1051066E-10
-0.7491600E+00 -0.1051222E-10
-0.7486500E+00 -0.1051313E-10
-0.7481400E+00 -0.1051333E-10
-0.7476300E+00 -0.1051277E-10
-0.7471200E+00 -0.1051147E-10
-0.7466100E+00 -0.1050950E-10
-0.7461000E+00 -0.1050695E-10
-0.7455900E+00 -0.1050399E-10
-0.7450800E+00 -0.1050078E-10
-0.7445700E+00 -0.1049751E-10
-0.7440600E+00 -0.1049438E-10
-0.7435500E+00 -0.1049156E-10
-0.7430400E+00 -0.1048922E-10
-0.7425300E+00 -0.1048748E-10
-0.7420200E+00 -0.1048643E-10
-0.7415100E+00 -0.1048610E-10
-0.7410000E+00 -0.1048650E-10
-0.7404900E+00 -0.1048757E-10
-0.7399800E+00 -0.1048920E-10
-0.7394700E+00 -0.1049126E-10
-0.7389600E+00 -0.1049358E-10
-0.7384500E+00 -0.1049599E-10
-0.7379400E+00 -0.1049829E-10
-0.7374300E+00 -0.1050032E-10
-0.7369200E+00 -0.1050191E-10
-0.7364100E+00 -0.1050293E-10
-0.7359000E+00 -0.1050330E-10
-0.7353900E+00 -0.1050296E-10
-0.7348800E+00 -0.1050193E-10
-0.7343700E+00 -0.1050023E-10
-0.7338600E+00 -0.1049798E-10
-0.7333500E+00 -0.1049528E-10
-0.7328400E+00 -0.1049229E-10
-0.7323300E+00 -0.1048919E-10
-0.7318200E+00 -0.1048616E-10
-0.7313100E+00 -0.1048336E-10
-0.7308000E+00 -0.1048096E-10
-0.7302900E+00 -0.1047909E-10
-0.7297800E+00 -0.1047783E-10
-0.7292700E+00 -0.1047725E-10
-0.7287600E+00 -0.1047735E-10
-0.7282500E+00 -0.1047809E-10
-0.7277400E+00 -0.1047941E-10
-0.7272300E+00 -0.1048117E-10
-0.7267200E+00 -0.1048325E-10
-0.7262100E+00 -0.1048548E-10
-0.7257000E+00 -0.1048768E-10
-0.7251900E+00 -0.1048968E-10
-0.7246800E+00 -0.1049134E-10
-0.7241700E+00 -0.1049251E-10
-0.7236600E+00 -0.1049309E-10
-0.7231500E+00 -0.1049304E-10
-0.7226400E+00 -0.1049232E-10
-0.7221300E+00 -0.1049096E-10
-0.7216200E+00 -0.1048903E-10
-0.7211100E+00 -0.1048664E-10
-0.7206000E+00 -0.1048390E-10
-0.7200900E+00 -0.1048099E-10
-0.7195800E+00 -0.1047806E-10
-0.7190700E+00 -0.1047528E-10
-0.7185600E+00 -0.1047280E-10
-0.7180500E+00 -0.1047077E-10
-0.7175400E+00 -0.1046928E-10
-0.7170300E+00 -0.1046841E-10
-0.7165200E+00 -0.1046819E-10
-0.7160100E+00 -0.1046860E-10
-0.7155000E+00 -0.1046959E-10
-0.7149900E+00 -0.1047106E-10
-0.7144800E+00 -0.1047291E-10
-0.7139700E+00 -0.1047497E-10
-0.7134600E+00 -0.1047709E-10
-0.7129500E+00 -0.1047912E-10
-0.7124400E+00 -0.1048088E-10
-0.7119300E+00 -0.1048224E-10
-0.7114200E+00 -0.1048310E-10
-0.7109100E+00 -0.1048337E-10
-0.7104000E+00 -0.1048300E-10
-0.7098900E+00 -0.1048201E-10
-0.7093800E+00 -0.1048042E-10
-0.7088700E+00 -0.1047833E-10
-0.7083600E+00 -0.1047583E-10
-0.7078500E+00 -0.1047308E-10
-0.7073400E+00 -0.1047021E-10
-0.7068300E+00 -0.1046740E-10
-0.7063200E+00 -0.1046479E-10
-0.7058100E+00 -0.1046254E-10
-0.7053000E+00 -0.1046075E-10
-0.7047900E+00 -0.1045953E-10
-0.7042800E+00 -0.1045892E-10
-0.7037700E+00 -0.1045893E-10
-0.7032600E+00 -0.1045954E-10
-0.7027500E+00 -0.1046069E-10
-0.7022400E+00 -0.1046226E-10
-0.7017300E+00 -0.1046414E-10
-0.7012200E+00 -0.1046617E-10
-0.7007100E+00 -0.1046821E-10
-0.7002000E+00 -0.1047008E-10
-0.6996900E+00 -0.1047165E-10
-0.6991800E+00 -0.1047279E-10
-0.6986700E+00 -0.1047340E-10
-0.6981600E+00 -0.1047341E-10
-0.6976500E+00 -0.1047280E-10
-0.6971400E+00 -0.1047159E-10
-0.6966300E+00 -0.1046983E-10
-0.6961200E+00 -0.1046761E-10
-0.6956100E+00 -0.1046505E-10
-0.6951000E+00 -0.1046228E-10
-0.6945900E+00 -0.1045948E-10
-0.6940800E+00 -0.1045679E-10
-0.6935700E+00 -0.1045436E-10
-0.6930600E+00 -0.1045234E-10
-0.6925500E+00 -0.1045081E-10
-0.6920400E+00 -0.1044987E-10
-0.6915300E+00 -0.1044955E-10
-0.6910200E+00 -0.1044984E-10
-0.6905100E+00 -0.1045070E-10