-0.1200000E+01 -0.1715348E-32
-0.1199490E+01 -0.1764918E-32
-0.1198980E+01 -0.1815911E-32
-0.1198470E+01 -0.1868366E-32
-0.1197960E+01 -0.1922325E-32
-0.1197450E+01 -0.1977833E-32
-0.1196940E+01 -0.2034933E-32
-0.1196430E+01 -0.2093671E-32
-0.1195920E+01 -0.2154095E-32
-0.1195410E+01 -0.2216252E-32
-0.1194900E+01 -0.2280193E-32
-0.1194390E+01 -0.2345968E-32
-0.1193880E+01 -0.2413631E-32
-0.1193370E+01 -0.2483233E-32
-0.1192860E+01 -0.2554832E-32
-0.1192350E+01 -0.2628482E-32
-0.1191840E+01 -0.2704243E-32
-0.1191330E+01 -0.2782173E-32
-0.1190820E+01 -0.2862335E-32
-0.1190310E+01 -0.2944792E-32
-0.1189800E+01 -0.3029607E-32
-0.1189290E+01 -0.3116847E-32
-0.1188780E+01 -0.3206582E-32
-0.1188270E+01 -0.3298881E-32
-0.1187760E+01 -0.3393817E-32
-0.1187250E+01 -0.3491465E-32
-0.1186740E+01 -0.3591902E-32
-0.1186230E+01 -0.3695207E-32
-0.1185720E+01 -0.3801461E-32
-0.1185210E+01 -0.3910750E-32
-0.1184700E+01 -0.4023158E-32
-0.1184190E+01 -0.4138775E-32
-0.1183680E+01 -0.4257692E-32
-0.1183170E+01 -0.4380004E-32
-0.1182660E+01 -0.4505807E-32
-0.1182150E+01 -0.4635201E-32
-0.1181640E+01 -0.4768286E-32
-0.1181130E+01 -0.4905169E-32
-0.1180620E+01 -0.5045956E-32
-0.1180110E+01 -0.5190759E-32
-0.1179600E+01 -0.5339691E-32
-0.1179090E+01 -0.5492868E-32
-0.1178580E+01 -0.5650411E-32
-0.1178070E+01 -0.5812443E-32
-0.1177560E+01 -0.5979091E-32
-0.1177050E+01 -0.6150483E-32
-0.1176540E+01 -0.6326755E-32
-0.1176030E+01 -0.6508044E-32
-0.1175520E+01 -0.6694492E-32
-0.1175010E+01 -0.6886245E-32
-0.1174500E+01 -0.7083452E-32
-0.1173990E+01 -0.7286267E-32
-0.1173480E+01 -0.7494850E-32
-0.1172970E+01 -0.7709364E-32
-0.1172460E+01 -0.7929975E-32
-0.1171950E+01 -0.8156858E-32
-0.1171440E+01 -0.8390189E-32
-0.1170930E+01 -0.8630151E-32
-0.1170420E+01 -0.8876931E-32
-0.1169910E+01 -0.9130723E-32
-0.1169400E+01 -0.9391724E-32
-0.1168890E+01 -0.9660138E-32
-0.1168380E+01 -0.9936174E-32
-0.1167870E+01 -0.1022005E-31
-0.1167360E+01 -0.1051198E-31
-0.1166850E+01 -0.1081219E-31
-0.1166340E+01 -0.1112093E-31
-0.1165830E+01 -0.1143842E-31
-0.1165320E+01 -0.1176491E-31
-0.1164810E+01 -0.1210067E-31
-0.1164300E+01 -0.1244593E-31
-0.1163790E+01 -0.1280098E-31
-0.1163280E+01 -0.1316609E-31
-0.1162770E+01 -0.1354154E-31
-0.1162260E+01 -0.1392761E-31
-0.1161750E+01 -0.1432462E-31
-0.1161240E+01 -0.1473287E-31
-0.1160730E+01 -0.1515267E-31
-0.1160220E+01 -0.1558435E-31
-0.1159710E+01 -0.1602824E-31
-0.1159200E+01 -0.1648469E-31
-0.1158690E+01 -0.1695405E-31
-0.1158180E+01 -0.1743668E-31
-0.1157670E+01 -0.1793296E-31
-0.1157160E+01 -0.1844327E-31
-0.1156650E+01 -0.1896800E-31
-0.1156140E+01 -0.1950755E-31
-0.1155630E+01 -0.2006235E-31
-0.1155120E+01 -0.2063282E-31
-0.1154610E+01 -0.2121941E-31
-0.1154100E+01 -0.2182255E-31
-0.1153590E+01 -0.2244273E-31
-0.1153080E+01 -0.2308041E-31
-0.1152570E+01 -0.2373608E-31
-0.1152060E+01 -0.2441026E-31
-0.1151550E+01 -0.2510346E-31
-0.1151040E+01 -0.2581620E-31
-0.1150530E+01 -0.2654905E-31
-0.1150020E+01 -0.2730255E-31
-0.1149510E+01 -0.2807730E-31
-0.1149000E+01 -0.2887387E-31
-0.1148490E+01 -0.2969289E-31
-0.1147980E+01 -0.3053499E-31
-0.1147470E+01 -0.3140080E-31
-0.1146960E+01 -0.3229099E-31
-0.1146450E+01 -0.3320624E-31
-0.1145940E+01 -0.3414726E-31
-0.1145430E+01 -0.3511477E-31
-0.1144920E+01 -0.3610950E-31
-0.1144410E+01 -0.3713222E-31
-0.1143900E+01 -0.3818372E-31
-0.1143390E+01 -0.3926478E-31
-0.1142880E+01 -0.4037625E-31
-0.1142370E+01 -0.4151897E-31
-0.1141860E+01 -0.4269380E-31
-0.1141350E+01 -0.4390166E-31
-0.1140840E+01 -0.4514346E-31
-0.1140330E+01 -0.4642015E-31
-0.1139820E+01 -0.4773271E-31
-0.1139310E+01 -0.4908212E-31
-0.1138800E+01 -0.5046942E-31
-0.1138290E+01 -0.5189567E-31
-0.1137780E+01 -0.5336194E-31
-0.1137270E+01 -0.5486936E-31
-0.1136760E+01 -0.5641907E-31
-0.1136250E+01 -0.5801225E-31
-0.1135740E+01 -0.5965010E-31
-0.1135230E+01 -0.6133387E-31
-0.1134720E+01 -0.6306484E-31
-0.1134210E+01 -0.6484432E-31
-0.1133700E+01 -0.6667366E-31
-0.1133190E+01 -0.6855425E-31
-0.1132680E+01 -0.7048752E-31
-0.1132170E+01 -0.7247492E-31
-0.1131660E+01 -0.7451797E-31
-0.1131150E+01 -0.7661820E-31
-0.1130640E+01 -0.7877722E-31
-0.1130130E+01 -0.8099666E-31
-0.1129620E+01 -0.8327819E-31
-0.1129110E+01 -0.8562353E-31
-0.1128600E+01 -0.8803447E-31
-0.1128090E+01 -0.9051282E-31
-0.1127580E+01 -0.9306046E-31
-0.1127070E+01 -0.9567931E-31
-0.1126560E+01 -0.9837134E-31
-0.1126050E+01 -0.1011386E-30
-0.1125540E+01 -0.1039831E-30
-0.1125030E+01 -0.1069071E-30
-0.1124520E+01 -0.1099128E-30
-0.1124010E+01 -0.1130024E-30
-0.1123500E+01 -0.1161782E-30
-0.1122990E+01 -0.1194426E-30
-0.1122480E+01 -0.1227981E-30
-0.1121970E+01 -0.1262472E-30
-0.1121460E+01 -0.1297925E-30
-0.1120950E+01 -0.1334367E-30
-0.1120440E+01 -0.1371825E-30
-0.1119930E+01 -0.1410327E-30
-0.1119420E+01 -0.1449902E-30
-0.1118910E+01 -0.1490579E-30
-0.1118400E+01 -0.1532391E-30
-0.1117890E+01 -0.1575366E-30
-0.1117380E+01 -0.1619539E-30
-0.1116870E+01 -0.1664942E-30
-0.1116360E+01 -0.1711609E-30
-0.1115850E+01 -0.1759575E-30
-0.1115340E+01 -0.1808875E-30
-0.1114830E+01 -0.1859548E-30
-0.1114320E+01 -0.1911630E-30
-0.1113810E+01 -0.1965161E-30
-0.1113300E+01 -0.2020180E-30
-0.1112790E+01 -0.2076730E-30
-0.1112280E+01 -0.2134851E-30
-0.1111770E+01 -0.2194587E-30
-0.1111260E+01 -0.2255983E-30
-0.1110750E+01 -0.2319085E-30
-0.1110240E+01 -0.2383939E-30
-0.1109730E+01 -0.2450595E-30
-0.1109220E+01 -0.2519101E-30
-0.1108710E+01 -0.2589508E-30
-0.1108200E+01 -0.2661870E-30
-0.1107690E+01 -0.2736239E-30
-0.1107180E+01 -0.2812672E-30
-0.1106670E+01 -0.2891224E-30
-0.1106160E+01 -0.2971955E-30
-0.1105650E+01 -0.3054924E-30
-0.1105140E+01 -0.3140193E-30
-0.1104630E+01 -0.3227825E-30
-0.1104120E+01 -0.3317885E-30
-0.1103610E+01 -0.3410440E-30
-0.1103100E+01 -0.3505559E-30
-0.1102590E+01 -0.3603312E-30
-0.1102080E+01 -0.3703772E-30
-0.1101570E+01 -0.3807012E-30
-0.1101060E+01 -0.3913110E-30
-0.1100550E+01 -0.4022143E-30
-0.1100040E+01 -0.4134193E-30
-0.1099530E+01 -0.4249342E-30
-0.1099020E+01 -0.4367676E-30
-0.1098510E+01 -0.4489282E-30
-0.1098000E+01 -0.4614248E-30
-0.1097490E+01 -0.4742669E-30
-0.1096980E+01 -0.4874639E-30
-0.1096470E+01 -0.5010254E-30
-0.1095960E+01 -0.5149616E-30
-0.1095450E+01 -0.5292826E-30
-0.1094940E+01 -0.5439990E-30
-0.1094430E+01 -0.5591217E-30
-0.1093920E+01 -0.5746619E-30
-0.1093410E+01 -0.5906309E-30
-0.1092900E+01 -0.6070404E-30
-0.1092390E+01 -0.6239027E-30
-0.1091880E+01 -0.6412301E-30
-0.1091370E+01 -0.6590352E-30
-0.1090860E+01 -0.6773313E-30
-0.1090350E+01 -0.6961317E-30
-0.1089840E+01 -0.7154502E-30
-0.1089330E+01 -0.7353011E-30
-0.1088820E+01 -0.7556988E-30
-0.1088310E+01 -0.7766584E-30
-0.1087800E+01 -0.7981952E-30
-0.1087290E+01 -0.8203249E-30
-0.1086780E+01 -0.8430638E-30
-0.1086270E+01 -0.8664285E-30
-0.1085760E+01 -0.8904361E-30
-0.1085250E+01 -0.9151042E-30
-0.1084740E+01 -0.9404508E-30
-0.1084230E+01 -0.9664945E-30
-0.1083720E+01 -0.9932542E-30
-0.1083210E+01 -0.1020750E-29
-0.1082700E+01 -0.1049001E-29
-0.1082190E+01 -0.1078028E-29
-0.1081680E+01 -0.1107853E-29
-0.1081170E+01 -0.1138497E-29
-0.1080660E+01 -0.1169983E-29
-0.1080150E+01 -0.1202333E-29
-0.1079640E+01 -0.1235571E-29
-0.1079130E+01 -0.1269721E-29
-0.1078620E+01 -0.1304809E-29
-0.1078110E+01 -0.1340859E-29
-0.1077600E+01 -0.1377898E-29
-0.1077090E+01 -0.1415953E-29
-0.1076580E+01 -0.1455051E-29
-0.1076070E+01 -0.1495222E-29
-0.1075560E+01 -0.1536493E-29
-0.1075050E+01 -0.1578895E-29
-0.1074540E+01 -0.1622458E-29
-0.1074030E+01 -0.1667215E-29
-0.1073520E+01 -0.1713198E-29
-0.1073010E+01 -0.1760439E-29
-0.1072500E+01 -0.1808974E-29
-0.1071990E+01 -0.1858837E-29
-0.1071480E+01 -0.1910065E-29
-0.1070970E+01 -0.1962694E-29
-0.1070460E+01 -0.2016763E-29
-0.1069950E+01 -0.2072310E-29
-0.1069440E+01 -0.2129376E-29
-0.1068930E+01 -0.2188002E-29
-0.1068420E+01 -0.2248231E-29
-0.1067910E+01 -0.2310105E-29
-0.1067400E+01 -0.2373670E-29
-0.1066890E+01 -0.2438971E-29
-0.1066380E+01 -0.2506056E-29
-0.1065870E+01 -0.2574972E-29
-0.1065360E+01 -0.2645770E-29
-0.1064850E+01 -0.2718501E-29
-0.1064340E+01 -0.2793216E-29
-0.1063830E+01 -0.2869969E-29
-0.1063320E+01 -0.2948817E-29
-0.1062810E+01 -0.3029815E-29
-0.1062300E+01 -0.3113022E-29
-0.1061790E+01 -0.3198497E-29
-0.1061280E+01 -0.3286302E-29
-0.1060770E+01 -0.3376501E-29
-0.1060260E+01 -0.3469157E-29
-0.1059750E+01 -0.3564337E-29
-0.1059240E+01 -0.3662109E-29
-0.1058730E+01 -0.3762544E-29
-0.1058220E+01 -0.3865713E-29
-0.1057710E+01 -0.3971691E-29
-0.1057200E+01 -0.4080553E-29
-0.1056690E+01 -0.4192377E-29
-0.1056180E+01 -0.4307244E-29
-0.1055670E+01 -0.4425234E-29
-0.1055160E+01 -0.4546434E-29
-0.1054650E+01 -0.4670928E-29
-0.1054140E+01 -0.4798807E-29
-0.1053630E+01 -0.4930160E-29
-0.1053120E+01 -0.5065083E-29
-0.1052610E+01 -0.5203671E-29
-0.1052100E+01 -0.5346024E-29
-0.1051590E+01 -0.5492242E-29
-0.1051080E+01 -0.5642429E-29
-0.1050570E+01 -0.5796694E-29
-0.1050060E+01 -0.5955145E-29
-0.1049550E+01 -0.6117895E-29
-0.1049040E+01 -0.6285060E-29
-0.1048530E+01 -0.6456759E-29
-0.1048020E+01 -0.6633114E-29
-0.1047510E+01 -0.6814250E-29
-0.1047000E+01 -0.7000296E-29
-0.1046490E+01 -0.7191384E-29
-0.1045980E+01 -0.7387650E-29
-0.1045470E+01 -0.7589232E-29
-0.1044960E+01 -0.7796274E-29
-0.1044450E+01 -0.8008923E-29
-0.1043940E+01 -0.8227329E-29
-0.1043430E+01 -0.8451647E-29
-0.1042920E+01 -0.8682036E-29
-0.1042410E+01 -0.8918658E-29
-0.1041900E+01 -0.9161682E-29
-0.1041390E+01 -0.9411279E-29
-0.1040880E+01 -0.9667625E-29
-0.1040370E+01 -0.9930903E-29
-0.1039860E+01 -0.1020130E-28
-0.1039350E+01 -0.1047900E-28
-0.1038840E+01 -0.1076420E-28
-0.1038330E+01 -0.1105711E-28
-0.1037820E+01 -0.1135794E-28
-0.1037310E+01 -0.1166688E-28
-0.1036800E+01 -0.1198417E-28
-0.1036290E+01 -0.1231002E-28
-0.1035780E+01 -0.1264466E-28
-0.1035270E+01 -0.1298834E-28
-0.1034760E+01 -0.1334128E-28
-0.1034250E+01 -0.1370375E-28
-0.1033740E+01 -0.1407599E-28
-0.1033230E+01 -0.1445827E-28
-0.1032720E+01 -0.1485085E-28
-0.1032210E+01 -0.1525401E-28
-0.1031700E+01 -0.1566803E-28
-0.1031190E+01 -0.1609321E-28
-0.1030680E+01 -0.1652984E-28
-0.1030170E+01 -0.1697823E-28
-0.1029660E+01 -0.1743870E-28
-0.1029150E+01 -0.1791155E-28
-0.1028640E+01 -0.1839714E-28
-0.1028130E+01 -0.1889579E-28
-0.1027620E+01 -0.1940785E-28
-0.1027110E+01 -0.1993369E-28
-0.1026600E+01 -0.2047367E-28
-0.1026090E+01 -0.2102816E-28
-0.1025580E+01 -0.2159756E-28
-0.1025070E+01 -0.2218227E-28
-0.1024560E+01 -0.2278268E-28
-0.1024050E+01 -0.2339923E-28
-0.1023540E+01 -0.2403233E-28
-0.1023030E+01 -0.2468244E-28
-0.1022520E+01 -0.2535000E-28
-0.1022010E+01 -0.2603549E-28
-0.1021500E+01 -0.2673936E-28
-0.1020990E+01 -0.2746213E-28
-0.1020480E+01 -0.2820428E-28
-0.1019970E+01 -0.2896634E-28
-0.1019460E+01 -0.2974884E-28
-0.1018950E+01 -0.3055232E-28
-0.1018440E+01 -0.3137733E-28
-0.1017930E+01 -0.3222446E-28
-0.1017420E+01 -0.3309427E-28
-0.1016910E+01 -0.3398739E-28
-0.1016400E+01 -0.3490443E-28
-0.1015890E+01 -0.3584603E-28
-0.1015380E+01 -0.3681284E-28
-0.1014870E+01 -0.3780552E-28
-0.1014360E+01 -0.3882476E-28
-0.1013850E+01 -0.3987128E-28
-0.1013340E+01 -0.4094579E-28
-0.1012830E+01 -0.4204904E-28
-0.1012320E+01 -0.4318179E-28
-0.1011810E+01 -0.4434482E-28
-0.1011300E+01 -0.4553894E-28
-0.1010790E+01 -0.4676497E-28
-0.1010280E+01 -0.4802376E-28
-0.1009770E+01 -0.4931618E-28
-0.1009260E+01 -0.5064312E-28
-0.1008750E+01 -0.5200549E-28
-0.1008240E+01 -0.5340423E-28
-0.1007730E+01 -0.5484031E-28
-0.1007220E+01 -0.5631472E-28
-0.1006710E+01 -0.5782847E-28
-0.1006200E+01 -0.5938260E-28
-0.1005690E+01 -0.6097817E-28
-0.1005180E+01 -0.6261630E-28
-0.1004670E+01 -0.6429809E-28
-0.1004160E+01 -0.6602471E-28
-0.1003650E+01 -0.6779735E-28
-0.1003140E+01 -0.6961722E-28
-0.1002630E+01 -0.7148556E-28
-0.1002120E+01 -0.7340367E-28
-0.1001610E+01 -0.7537285E-28
-0.1001100E+01 -0.7739445E-28
-0.1000590E+01 -0.7946987E-28
-0.1000080E+01 -0.8160051E-28
-0.9995700E+00 -0.8378785E-28
-0.9990600E+00 -0.8603337E-28
-0.9985500E+00 -0.8833861E-28
-0.9980400E+00 -0.9070516E-28
-0.9975300E+00 -0.9313461E-28
-0.9970200E+00 -0.9562863E-28
-0.9965100E+00 -0.9818893E-28
-0.9960000E+00 -0.1008173E-27
-0.9954900E+00 -0.1035154E-27
-0.9949800E+00 -0.1062852E-27
-0.9944700E+00 -0.1091285E-27
-0.9939600E+00 -0.1120473E-27
-0.9934500E+00 -0.1150436E-27
-0.9929400E+00 -0.1181194E-27
-0.9924300E+00 -0.1212768E-27
-0.9919200E+00 -0.1245179E-27
-0.9914100E+00 -0.1278450E-27
-0.9909000E+00 -0.1312603E-27
-0.9903900E+00 -0.1347662E-27
-0.9898800E+00 -0.1383650E-27
-0.9893700E+00 -0.1420591E-27
-0.9888600E+00 -0.1458511E-27
-0.9883500E+00 -0.1497435E-27
-0.9878400E+00 -0.1537390E-27
-0.9873300E+00 -0.1578403E-27
-0.9868200E+00 -0.1620502E-27
-0.9863100E+00 -0.1663715E-27
-0.9858000E+00 -0.1708071E-27
-0.9852900E+00 -0.1753601E-27
-0.9847800E+00 -0.1800335E-27
-0.9842700E+00 -0.1848305E-27
-0.9837600E+00 -0.1897543E-27
-0.9832500E+00 -0.1948083E-27
-0.9827400E+00 -0.1999958E-27
-0.9822300E+00 -0.2053204E-27
-0.9817200E+00 -0.2107857E-27
-0.9812100E+00 -0.2163953E-27
-0.9807000E+00 -0.2221530E-27
-0.9801900E+00 -0.2280628E-27
-0.9796800E+00 -0.2341285E-27
-0.9791700E+00 -0.2403543E-27
-0.9786600E+00 -0.2467443E-27
-0.9781500E+00 -0.2533029E-27
-0.9776400E+00 -0.2600345E-27
-0.9771300E+00 -0.2669436E-27
-0.9766200E+00 -0.2740349E-27
-0.9761100E+00 -0.2813131E-27
-0.9756000E+00 -0.2887830E-27
-0.9750900E+00 -0.2964498E-27
-0.9745800E+00 -0.3043186E-27
-0.9740700E+00 -0.3123946E-27
-0.9735600E+00 -0.3206832E-27
-0.9730500E+00 -0.3291901E-27
-0.9725400E+00 -0.3379209E-27
-0.9720300E+00 -0.3468814E-27
-0.9715200E+00 -0.3560777E-27
-0.9710100E+00 -0.3655159E-27
-0.9705000E+00 -0.3752023E-27
-0.9699900E+00 -0.3851434E-27
-0.9694800E+00 -0.3953458E-27
-0.9689700E+00 -0.4058165E-27
-0.9684600E+00 -0.4165622E-27
-0.9679500E+00 -0.4275902E-27
-0.9674400E+00 -0.4389079E-27
-0.9669300E+00 -0.4505229E-27
-0.9664200E+00 -0.4624428E-27
-0.9659100E+00 -0.4746756E-27
-0.9654000E+00 -0.4872294E-27
-0.9648900E+00 -0.5001127E-27
-0.9643800E+00 -0.5133339E-27
-0.9638700E+00 -0.5269020E-27
-0.9633600E+00 -0.5408258E-27
-0.9628500E+00 -0.5551147E-27
-0.9623400E+00 -0.5697782E-27
-0.9618300E+00 -0.5848259E-27
-0.9613200E+00 -0.6002679E-27
-0.9608100E+00 -0.6161144E-27
-0.9603000E+00 -0.6323760E-27
-0.9597900E+00 -0.6490633E-27
-0.9592800E+00 -0.6661875E-27
-0.9587700E+00 -0.6837599E-27
-0.9582600E+00 -0.7017922E-27
-0.9577500E+00 -0.7202962E-27
-0.9572400E+00 -0.7392843E-27
-0.9567300E+00 -0.7587690E-27
-0.9562200E+00 -0.7787631E-27
-0.9557100E+00 -0.7992799E-27
-0.9552000E+00 -0.8203331E-27
-0.9546900E+00 -0.8419364E-27
-0.9541800E+00 -0.8641041E-27
-0.9536700E+00 -0.8868509E-27
-0.9531600E+00 -0.9101917E-27
-0.9526500E+00 -0.9341420E-27
-0.9521400E+00 -0.9587175E-27
-0.9516300E+00 -0.9839345E-27
-0.9511200E+00 -0.1009809E-26
-0.9506100E+00 -0.1036359E-26
-0.9501000E+00 -0.1063602E-26
-0.9495900E+00 -0.1091555E-26
-0.9490800E+00 -0.1120237E-26
-0.9485700E+00 -0.1149666E-26
-0.9480600E+00 -0.1179863E-26
-0.9475500E+00 -0.1210846E-26
-0.9470400E+00 -0.1242636E-26
-0.9465300E+00 -0.1275254E-26
-0.9460200E+00 -0.1308722E-26
-0.9455100E+00 -0.1343061E-26
-0.9450000E+00 -0.1378294E-26
-0.9444900E+00 -0.1414443E-26
-0.9439800E+00 -0.1451534E-26
-0.9434700E+00 -0.1489589E-26
-0.9429600E+00 -0.1528633E-26
-0.9424500E+00 -0.1568693E-26
-0.9419400E+00 -0.1609795E-26
-0.9414300E+00 -0.1651965E-26
-0.9409200E+00 -0.1695231E-26
-0.9404100E+00 -0.1739621E-26
-0.9399000E+00 -0.1785164E-26
-0.9393900E+00 -0.1831889E-26
-0.9388800E+00 -0.1879829E-26
-0.9383700E+00 -0.1929012E-26
-0.9378600E+00 -0.1979472E-26
-0.9373500E+00 -0.2031242E-26
-0.9368400E+00 -0.2084354E-26
-0.9363300E+00 -0.2138844E-26
-0.9358200E+00 -0.2194747E-26
-0.9353100E+00 -0.2252100E-26
-0.9348000E+00 -0.2310939E-26
-0.9342900E+00 -0.2371303E-26
-0.9337800E+00 -0.2433231E-26
-0.9332700E+00 -0.2496763E-26
-0.9327600E+00 -0.2561941E-26
-0.9322500E+00 -0.2628807E-26
-0.9317400E+00 -0.2697403E-26
-0.9312300E+00 -0.2767776E-26
-0.9307200E+00 -0.2839969E-26
-0.9302100E+00 -0.2914030E-26
-0.9297000E+00 -0.2990007E-26
-0.9291900E+00 -0.3067949E-26
-0.9286800E+00 -0.3147907E-26
-0.9281700E+00 -0.3229931E-26
-0.9276600E+00 -0.3314076E-26
-0.9271500E+00 -0.3400394E-26
-0.9266400E+00 -0.3488943E-26
-0.9261300E+00 -0.3579779E-26
-0.9256200E+00 -0.3672961E-26
-0.9251100E+00 -0.3768549E-26
-0.9246000E+00 -0.3866604E-26
-0.9240900E+00 -0.3967190E-26
-0.9235800E+00 -0.4070371E-26
-0.9230700E+00 -0.4176213E-26
-0.9225600E+00 -0.4284786E-26
-0.9220500E+00 -0.4396159E-26
-0.9215400E+00 -0.4510402E-26
-0.9210300E+00 -0.4627590E-26
-0.9205200E+00 -0.4747799E-26
-0.9200100E+00 -0.4871104E-26
-0.9195000E+00 -0.4997586E-26
-0.9189900E+00 -0.5127326E-26
-0.9184800E+00 -0.5260406E-26
-0.9179700E+00 -0.5396913E-26
-0.9174600E+00 -0.5536932E-26
-0.9169500E+00 -0.5680555E-26
-0.9164400E+00 -0.5827874E-26
-0.9159300E+00 -0.5978981E-26
-0.9154200E+00 -0.6133975E-26
-0.9149100E+00 -0.6292954E-26
-0.9144000E+00 -0.6456020E-26
-0.9138900E+00 -0.6623277E-26
-0.9133800E+00 -0.6794832E-26
-0.9128700E+00 -0.6970793E-26
-0.9123600E+00 -0.7151274E-26
-0.9118500E+00 -0.7336390E-26
-0.9113400E+00 -0.7526258E-26
-0.9108300E+00 -0.7721000E-26
-0.9103200E+00 -0.7920740E-26
-0.9098100E+00 -0.8125604E-26
-0.9093000E+00 -0.8335724E-26
-0.9087900E+00 -0.8551232E-26
-0.9082800E+00 -0.8772267E-26
-0.9077700E+00 -0.8998968E-26
-0.9072600E+00 -0.9231479E-26
-0.9067500E+00 -0.9469949E-26
-0.9062400E+00 -0.9714529E-26
-0.9057300E+00 -0.9965374E-26
-0.9052200E+00 -0.1022264E-25
-0.9047100E+00 -0.1048650E-25
-0.9042000E+00 -0.1075711E-25
-0.9036900E+00 -0.1103464E-25
-0.9031800E+00 -0.1131928E-25
-0.9026700E+00 -0.1161120E-25
-0.9021600E+00 -0.1191058E-25
-0.9016500E+00 -0.1221763E-25
-0.9011400E+00 -0.1253252E-25
-0.9006300E+00 -0.1285545E-25
-0.9001200E+00 -0.1318665E-25
-0.8996100E+00 -0.1352630E-25
-0.8991000E+00 -0.1387463E-25
-0.8985900E+00 -0.1423185E-25
-0.8980800E+00 -0.1459820E-25
-0.8975700E+00 -0.1497389E-25
-0.8970600E+00 -0.1535918E-25
-0.8965500E+00 -0.1575430E-25
-0.8960400E+00 -0.1615950E-25
-0.8955300E+00 -0.1657503E-25
-0.8950200E+00 -0.1700116E-25
-0.8945100E+00 -0.1743816E-25
-0.8940000E+00 -0.1788629E-25
-0.8934900E+00 -0.1834585E-25
-0.8929800E+00 -0.1881711E-25
-0.8924700E+00 -0.1930038E-25
-0.8919600E+00 -0.1979596E-25
-0.8914500E+00 -0.2030416E-25
-0.8909400E+00 -0.2082529E-25
-0.8904300E+00 -0.2135970E-25
-0.8899200E+00 -0.2190770E-25
-0.8894100E+00 -0.2246964E-25
-0.8889000E+00 -0.2304587E-25
-0.8883900E+00 -0.2363676E-25
-0.8878800E+00 -0.2424267E-25
-0.8873700E+00 -0.2486398E-25
-0.8868600E+00 -0.2550108E-25
-0.8863500E+00 -0.2615438E-25
-0.8858400E+00 -0.2682426E-25
-0.8853300E+00 -0.2751116E-25
-0.8848200E+00 -0.2821551E-25
-0.8843100E+00 -0.2893773E-25
-0.8838000E+00 -0.2967828E-25
-0.8832900E+00 -0.3043763E-25
-0.8827800E+00 -0.3121625E-25
-0.8822700E+00 -0.3201462E-25
-0.8817600E+00 -0.3283324E-25
-0.8812500E+00 -0.3367261E-25
-0.8807400E+00 -0.3453326E-25
-0.8802300E+00 -0.3541573E-25
-0.8797200E+00 -0.3632056E-25
-0.8792100E+00 -0.3724830E-25
-0.8787000E+00 -0.3819955E-25
-0.8781900E+00 -0.3917489E-25
-0.8776800E+00 -0.4017493E-25
-0.8771700E+00 -0.4120028E-25
-0.8766600E+00 -0.4225157E-25
-0.8761500E+00 -0.4332947E-25
-0.8756400E+00 -0.4443463E-25
-0.8751300E+00 -0.4556775E-25
-0.8746200E+00 -0.4672951E-25
-0.8741100E+00 -0.4792065E-25
-0.8736000E+00 -0.4914189E-25
-0.8730900E+00 -0.5039399E-25
-0.8725800E+00 -0.5167773E-25
-0.8720700E+00 -0.5299389E-25
-0.8715600E+00 -0.5434328E-25
-0.8710500E+00 -0.5572675E-25
-0.8705400E+00 -0.5714514E-25
-0.8700300E+00 -0.5859932E-25
-0.8695200E+00 -0.6009020E-25
-0.8690100E+00 -0.6161868E-25
-0.8685000E+00 -0.6318572E-25
-0.8679900E+00 -0.6479226E-25
-0.8674800E+00 -0.6643931E-25
-0.8669700E+00 -0.6812788E-25
-0.8664600E+00 -0.6985899E-25
-0.8659500E+00 -0.7163372E-25
-0.8654400E+00 -0.7345314E-25
-0.8649300E+00 -0.7531839E-25
-0.8644200E+00 -0.7723060E-25
-0.8639100E+00 -0.7919094E-25
-0.8634000E+00 -0.8120061E-25
-0.8628900E+00 -0.8326085E-25
-0.8623800E+00 -0.8537291E-25
-0.8618700E+00 -0.8753810E-25
-0.8613600E+00 -0.8975772E-25
-0.8608500E+00 -0.9203314E-25
-0.8603400E+00 -0.9436575E-25
-0.8598300E+00 -0.9675698E-25
-0.8593200E+00 -0.9920828E-25
-0.8588100E+00 -0.1017212E-24
-0.8583000E+00 -0.1042971E-24
-0.8577900E+00 -0.1069378E-24
-0.8572800E+00 -0.1096448E-24
-0.8567700E+00 -0.1124196E-24
-0.8562600E+00 -0.1152641E-24
-0.8557500E+00 -0.1181800E-24
-0.8552400E+00 -0.1211690E-24
-0.8547300E+00 -0.1242330E-24
-0.8542200E+00 -0.1273738E-24
-0.8537100E+00 -0.1305933E-24
-0.8532000E+00 -0.1338934E-24
-0.8526900E+00 -0.1372763E-24
-0.8521800E+00 -0.1407439E-24
-0.8516700E+00 -0.1442984E-24
-0.8511600E+00 -0.1479418E-24
-0.8506500E+00 -0.1516765E-24
-0.8501400E+00 -0.1555046E-24
-0.8496300E+00 -0.1594285E-24
-0.8491200E+00 -0.1634506E-24
-0.8486100E+00 -0.1675732E-24
-0.8481000E+00 -0.1717990E-24
-0.8475900E+00 -0.1761303E-24
-0.8470800E+00 -0.1805700E-24
-0.8465700E+00 -0.1851205E-24
-0.8460600E+00 -0.1897848E-24
-0.8455500E+00 -0.1945656E-24
-0.8450400E+00 -0.1994657E-24
-0.8445300E+00 -0.2044882E-24
-0.8440200E+00 -0.2096361E-24
-0.8435100E+00 -0.2149124E-24
-0.8430000E+00 -0.2203204E-24
-0.8424900E+00 -0.2258633E-24
-0.8419800E+00 -0.2315444E-24
-0.8414700E+00 -0.2373672E-24
-0.8409600E+00 -0.2433352E-24
-0.8404500E+00 -0.2494519E-24
-0.8399400E+00 -0.2557210E-24
-0.8394300E+00 -0.2621463E-24
-0.8389200E+00 -0.2687316E-24
-0.8384100E+00 -0.2754810E-24
-0.8379000E+00 -0.2823983E-24
-0.8373900E+00 -0.2894878E-24
-0.8368800E+00 -0.2967538E-24
-0.8363700E+00 -0.3042006E-24
-0.8358600E+00 -0.3118326E-24
-0.8353500E+00 -0.3196544E-24
-0.8348400E+00 -0.3276707E-24
-0.8343300E+00 -0.3358862E-24
-0.8338200E+00 -0.3443060E-24
-0.8333100E+00 -0.3529350E-24
-0.8328000E+00 -0.3617783E-24
-0.8322900E+00 -0.3708413E-24
-0.8317800E+00 -0.3801294E-24
-0.8312700E+00 -0.3896480E-24
-0.8307600E+00 -0.3994029E-24
-0.8302500E+00 -0.4093999E-24
-0.8297400E+00 -0.4196450E-24
-0.8292300E+00 -0.4301441E-24
-0.8287200E+00 -0.4409036E-24
-0.8282100E+00 -0.4519299E-24
-0.8277000E+00 -0.4632296E-24
-0.8271900E+00 -0.4748093E-24
-0.8266800E+00 -0.4866759E-24
-0.8261700E+00 -0.4988364E-24
-0.8256600E+00 -0.5112982E-24
-0.8251500E+00 -0.5240686E-24
-0.8246400E+00 -0.5371551E-24
-0.8241300E+00 -0.5505655E-24
-0.8236200E+00 -0.5643078E-24
-0.8231100E+00 -0.5783902E-24
-0.8226000E+00 -0.5928208E-24
-0.8220900E+00 -0.6076084E-24
-0.8215800E+00 -0.6227616E-24
-0.8210700E+00 -0.6382893E-24
-0.8205600E+00 -0.6542009E-24
-0.8200500E+00 -0.6705056E-24
-0.8195400E+00 -0.6872131E-24
-0.8190300E+00 -0.7043332E-24
-0.8185200E+00 -0.7218761E-24
-0.8180100E+00 -0.7398520E-24
-0.8175000E+00 -0.7582716E-24
-0.8169900E+00 -0.7771457E-24
-0.8164800E+00 -0.7964855E-24
-0.8159700E+00 -0.8163023E-24
-0.8154600E+00 -0.8366077E-24
-0.8149500E+00 -0.8574138E-24
-0.8144400E+00 -0.8787328E-24
-0.8139300E+00 -0.9005771E-24
-0.8134200E+00 -0.9229597E-24
-0.8129100E+00 -0.9458935E-24
-0.8124000E+00 -0.9693921E-24
-0.8118900E+00 -0.9934693E-24
-0.8113800E+00 -0.1018139E-23
-0.8108700E+00 -0.1043416E-23
-0.8103600E+00 -0.1069315E-23
-0.8098500E+00 -0.1095851E-23
-0.8093400E+00 -0.1123040E-23
-0.8088300E+00 -0.1150897E-23
-0.8083200E+00 -0.1179439E-23
-0.8078100E+00 -0.1208683E-23
-0.8073000E+00 -0.1238645E-23
-0.8067900E+00 -0.1269343E-23
-0.8062800E+00 -0.1300795E-23
-0.8057700E+00 -0.1333020E-23
-0.8052600E+00 -0.1366036E-23
-0.8047500E+00 -0.1399862E-23
-0.8042400E+00 -0.1434518E-23
-0.8037300E+00 -0.1470024E-23
-0.8032200E+00 -0.1506402E-23
-0.8027100E+00 -0.1543672E-23
-0.8022000E+00 -0.1581855E-23
-0.8016900E+00 -0.1620975E-23
-0.8011800E+00 -0.1661053E-23
-0.8006700E+00 -0.1702114E-23
-0.8001600E+00 -0.1744180E-23
-0.7996500E+00 -0.1787277E-23
-0.7991400E+00 -0.1831429E-23
-0.7986300E+00 -0.1876661E-23
-0.7981200E+00 -0.1923001E-23
-0.7976100E+00 -0.1970476E-23
-0.7971000E+00 -0.2019111E-23
-0.7965900E+00 -0.2068936E-23
-0.7960800E+00 -0.2119980E-23
-0.7955700E+00 -0.2172272E-23
-0.7950600E+00 -0.2225842E-23
-0.7945500E+00 -0.2280721E-23
-0.7940400E+00 -0.2336941E-23
-0.7935300E+00 -0.2394535E-23
-0.7930200E+00 -0.2453535E-23
-0.7925100E+00 -0.2513975E-23
-0.7920000E+00 -0.2575891E-23
-0.7914900E+00 -0.2639318E-23
-0.7909800E+00 -0.2704293E-23
-0.7904700E+00 -0.2770853E-23
-0.7899600E+00 -0.2839037E-23
-0.7894500E+00 -0.2908883E-23
-0.7889400E+00 -0.2980431E-23
-0.7884300E+00 -0.3053724E-23
-0.7879200E+00 -0.3128803E-23
-0.7874100E+00 -0.3205711E-23
-0.7869000E+00 -0.3284492E-23
-0.7863900E+00 -0.3365192E-23
-0.7858800E+00 -0.3447857E-23
-0.7853700E+00 -0.3532534E-23
-0.7848600E+00 -0.3619271E-23
-0.7843500E+00 -0.3708119E-23
-0.7838400E+00 -0.3799128E-23
-0.7833300E+00 -0.3892350E-23
-0.7828200E+00 -0.3987839E-23
-0.7823100E+00 -0.4085649E-23
-0.7818000E+00 -0.4185836E-23
-0.7812900E+00 -0.4288457E-23
-0.7807800E+00 -0.4393571E-23
-0.7802700E+00 -0.4501238E-23
-0.7797600E+00 -0.4611520E-23
-0.7792500E+00 -0.4724478E-23
-0.7787400E+00 -0.4840179E-23
-0.7782300E+00 -0.4958687E-23
-0.7777200E+00 -0.5080070E-23
-0.7772100E+00 -0.5204397E-23
-0.7767000E+00 -0.5331740E-23
-0.7761900E+00 -0.5462169E-23
-0.7756800E+00 -0.5595760E-23
-0.7751700E+00 -0.5732589E-23
-0.7746600E+00 -0.5872733E-23
-0.7741500E+00 -0.6016271E-23
-0.7736400E+00 -0.6163286E-23
-0.7731300E+00 -0.6313860E-23
-0.7726200E+00 -0.6468078E-23
-0.7721100E+00 -0.6626028E-23
-0.7716000E+00 -0.6787800E-23
-0.7710900E+00 -0.6953485E-23
-0.7705800E+00 -0.7123177E-23
-0.7700700E+00 -0.7296972E-23
-0.7695600E+00 -0.7474968E-23
-0.7690500E+00 -0.7657266E-23
-0.7685400E+00 -0.7843969E-23
-0.7680300E+00 -0.8035182E-23
-0.7675200E+00 -0.8231013E-23
-0.7670100E+00 -0.8431573E-23
-0.7665000E+00 -0.8636975E-23
-0.7659900E+00 -0.8847334E-23
-0.7654800E+00 -0.9062769E-23
-0.7649700E+00 -0.9283402E-23
-0.7644600E+00 -0.9509357E-23
-0.7639500E+00 -0.9740761E-23
-0.7634400E+00 -0.9977743E-23
-0.7629300E+00 -0.1022044E-22
-0.7624200E+00 -0.1046898E-22
-0.7619100E+00 -0.1072351E-22
-0.7614000E+00 -0.1098418E-22
-0.7608900E+00 -0.1125112E-22
-0.7603800E+00 -0.1152448E-22
-0.7598700E+00 -0.1180443E-22
-0.7593600E+00 -0.1209112E-22
-0.7588500E+00 -0.1238470E-22
-0.7583400E+00 -0.1268535E-22
-0.7578300E+00 -0.1299322E-22
-0.7573200E+00 -0.1330850E-22
-0.7568100E+00 -0.1363136E-22
-0.7563000E+00 -0.1396198E-22
-0.7557900E+00 -0.1430055E-22
-0.7552800E+00 -0.1464724E-22
-0.7547700E+00 -0.1500227E-22
-0.7542600E+00 -0.1536581E-22
-0.7537500E+00 -0.1573809E-22
-0.7532400E+00 -0.1611930E-22
-0.7527300E+00 -0.1650966E-22
-0.7522200E+00 -0.1690939E-22
-0.7517100E+00 -0.1731870E-22
-0.7512000E+00 -0.1773783E-22
-0.7506900E+00 -0.1816700E-22
-0.7501800E+00 -0.1860646E-22
-0.7496700E+00 -0.1905646E-22
-0.7491600E+00 -0.1951723E-22
-0.7486500E+00 -0.1998904E-22
-0.7481400E+00 -0.2047215E-22
-0.7476300E+00 -0.2096682E-22
-0.7471200E+00 -0.2147333E-22
-0.7466100E+00 -0.2199197E-22
-0.7461000E+00 -0.2252301E-22
-0.7455900E+00 -0.2306675E-22
-0.7450800E+00 -0.2362350E-22
-0.7445700E+00 -0.2419355E-22
-0.7440600E+00 -0.2477724E-22
-0.7435500E+00 -0.2537486E-22
-0.7430400E+00 -0.2598677E-22
-0.7425300E+00 -0.2661330E-22
-0.7420200E+00 -0.2725478E-22
-0.7415100E+00 -0.2791158E-22
-0.7410000E+00 -0.2858407E-22
-0.7404900E+00 -0.2927260E-22
-0.7399800E+00 -0.2997756E-22
-0.7394700E+00 -0.3069934E-22
-0.7389600E+00 -0.3143833E-22
-0.7384500E+00 -0.3219495E-22
-0.7379400E+00 -0.3296961E-22
-0.7374300E+00 -0.3376273E-22
-0.7369200E+00 -0.3457474E-22
-0.7364100E+00 -0.3540611E-22
-0.7359000E+00 -0.3625728E-22
-0.7353900E+00 -0.3712872E-22
-0.7348800E+00 -0.3802091E-22
-0.7343700E+00 -0.3893433E-22
-0.7338600E+00 -0.3986948E-22
-0.7333500E+00 -0.4082689E-22
-0.7328400E+00 -0.4180707E-22
-0.7323300E+00 -0.4281056E-22
-0.7318200E+00 -0.4383790E-22
-0.7313100E+00 -0.4488967E-22
-0.7308000E+00 -0.4596642E-22
-0.7302900E+00 -0.4706876E-22
-0.7297800E+00 -0.4819728E-22
-0.7292700E+00 -0.4935261E-22
-0.7287600E+00 -0.5053535E-22
-0.7282500E+00 -0.5174618E-22
-0.7277400E+00 -0.5298573E-22
-0.7272300E+00 -0.5425469E-22
-0.7267200E+00 -0.5555375E-22
-0.7262100E+00 -0.5688362E-22
-0.7257000E+00 -0.5824501E-22
-0.7251900E+00 -0.5963868E-22
-0.7246800E+00 -0.6106537E-22
-0.7241700E+00 -0.6252587E-22
-0.7236600E+00 -0.6402095E-22
-0.7231500E+00 -0.6555145E-22
-0.7226400E+00 -0.6711819E-22
-0.7221300E+00 -0.6872200E-22
-0.7216200E+00 -0.7036378E-22
-0.7211100E+00 -0.7204440E-22
-0.7206000E+00 -0.7376478E-22
-0.7200900E+00 -0.7552585E-22
-0.7195800E+00 -0.7732855E-22
-0.7190700E+00 -0.7917387E-22
-0.7185600E+00 -0.8106281E-22
-0.7180500E+00 -0.8299638E-22
-0.7175400E+00 -0.8497564E-22
-0.7170300E+00 -0.8700165E-22
-0.7165200E+00 -0.8907549E-22
-0.7160100E+00 -0.9119830E-22
-0.7155000E+00 -0.9337122E-22
-0.7149900E+00 -0.9559541E-22
-0.7144800E+00 -0.9787207E-22
-0.7139700E+00 -0.1002024E-21
-0.7134600E+00 -0.1025878E-21
-0.7129500E+00 -0.1050293E-21
-0.7124400E+00 -0.1075284E-21
-0.7119300E+00 -0.1100864E-21
-0.7114200E+00 -0.1127046E-21
-0.7109100E+00 -0.1153845E-21
-0.7104000E+00 -0.1181275E-21
-0.7098900E+00 -0.1209350E-21
-0.7093800E+00 -0.1238087E-21
-0.7088700E+00 -0.1267499E-21
-0.7083600E+00 -0.1297604E-21
-0.7078500E+00 -0.1328416E-21
-0.7073400E+00 -0.1359953E-21
-0.7068300E+00 -0.1392231E-21
-0.7063200E+00 -0.1425268E-21
-0.7058100E+00 -0.1459082E-21
-0.7053000E+00 -0.1493689E-21
-0.7047900E+00 -0.1529109E-21
-0.7042800E+00 -0.1565362E-21
-0.7037700E+00 -0.1602465E-21
-0.7032600E+00 -0.1640439E-21
-0.7027500E+00 -0.1679304E-21
-0.7022400E+00 -0.1719081E-21
-0.7017300E+00 -0.1759791E-21
-0.7012200E+00 -0.1801456E-21
-0.7007100E+00 -0.1844098E-21
-0.7002000E+00 -0.1887739E-21
-0.6996900E+00 -0.1932403E-21
-0.6991800E+00 -0.1978113E-21
-0.6986700E+00 -0.2024894E-21
-0.6981600E+00 -0.2072771E-21
-0.6976500E+00 -0.2121769E-21
-0.6971400E+00 -0.2171913E-21
-0.6966300E+00 -0.2223231E-21
-0.6961200E+00 -0.2275750E-21
-0.6956100E+00 -0.2329497E-21
-0.6951000E+00 -0.2384501E-21
-0.6945900E+00 -0.2440791E-21
-0.6940800E+00 -0.2498396E-21
-0.6935700E+00 -0.2557348E-21
-0.6930600E+00 -0.2617677E-21
-0.6925500E+00 -0.2679414E-21
-0.6920400E+00 -0.2742593E-21
-0.6915300E+00 -0.2807248E-21
-0.6910200E+00 -0.2873412E-21
-0.6905100E+00 -0.2941119E-21