-0.1200000E+01  0.0000000E+00
-0.1199490E+01  0.0000000E+00
-0.1198980E+01  0.0000000E+00
-0.1198470E+01  0.0000000E+00
-0.1197960E+01  0.0000000E+00
-0.1197450E+01  0.0000000E+00
-0.1196940E+01  0.0000000E+00
-0.1196430E+01  0.0000000E+00
-0.1195920E+01  0.0000000E+00
-0.1195410E+01  0.0000000E+00
-0.1194900E+01  0.0000000E+00
-0.1194390E+01  0.0000000E+00
-0.1193880E+01  0.0000000E+00
-0.1193370E+01  0.0000000E+00
-0.1192860E+01  0.0000000E+00
-0.1192350E+01  0.0000000E+00
-0.1191840E+01  0.0000000E+00
-0.1191330E+01  0.0000000E+00
-0.1190820E+01  0.0000000E+00
-0.1190310E+01  0.0000000E+00
-0.1189800E+01  0.0000000E+00
-0.1189290E+01  0.0000000E+00
-0.1188780E+01  0.0000000E+00
-0.1188270E+01  0.0000000E+00
-0.1187760E+01  0.0000000E+00
-0.1187250E+01  0.0000000E+00
-0.1186740E+01  0.0000000E+00
-0.1186230E+01  0.0000000E+00
-0.1185720E+01  0.0000000E+00
-0.1185210E+01  0.0000000E+00
-0.1184700E+01  0.0000000E+00
-0.1184190E+01  0.0000000E+00
-0.1183680E+01  0.0000000E+00
-0.1183170E+01  0.0000000E+00
-0.1182660E+01  0.0000000E+00
-0.1182150E+01  0.0000000E+00
-0.1181640E+01  0.0000000E+00
-0.1181130E+01  0.0000000E+00
-0.1180620E+01  0.0000000E+00
-0.1180110E+01  0.0000000E+00
-0.1179600E+01  0.0000000E+00
-0.1179090E+01  0.0000000E+00
-0.1178580E+01  0.0000000E+00
-0.1178070E+01  0.0000000E+00
-0.1177560E+01  0.0000000E+00
-0.1177050E+01  0.0000000E+00
-0.1176540E+01  0.0000000E+00
-0.1176030E+01  0.0000000E+00
-0.1175520E+01  0.0000000E+00
-0.1175010E+01  0.0000000E+00
-0.1174500E+01  0.0000000E+00
-0.1173990E+01  0.0000000E+00
-0.1173480E+01  0.0000000E+00
-0.1172970E+01  0.0000000E+00
-0.1172460E+01  0.0000000E+00
-0.1171950E+01  0.0000000E+00
-0.1171440E+01  0.0000000E+00
-0.1170930E+01  0.0000000E+00
-0.1170420E+01  0.0000000E+00
-0.1169910E+01  0.0000000E+00
-0.1169400E+01  0.0000000E+00
-0.1168890E+01  0.0000000E+00
-0.1168380E+01  0.0000000E+00
-0.1167870E+01  0.0000000E+00
-0.1167360E+01  0.0000000E+00
-0.1166850E+01  0.0000000E+00
-0.1166340E+01  0.0000000E+00
-0.1165830E+01  0.0000000E+00
-0.1165320E+01  0.0000000E+00
-0.1164810E+01  0.0000000E+00
-0.1164300E+01  0.0000000E+00
-0.1163790E+01  0.0000000E+00
-0.1163280E+01  0.0000000E+00
-0.1162770E+01  0.0000000E+00
-0.1162260E+01  0.0000000E+00
-0.1161750E+01  0.0000000E+00
-0.1161240E+01  0.0000000E+00
-0.1160730E+01  0.0000000E+00
-0.1160220E+01  0.0000000E+00
-0.1159710E+01  0.0000000E+00
-0.1159200E+01  0.0000000E+00
-0.1158690E+01  0.0000000E+00
-0.1158180E+01  0.0000000E+00
-0.1157670E+01  0.0000000E+00
-0.1157160E+01  0.0000000E+00
-0.1156650E+01  0.0000000E+00
-0.1156140E+01  0.0000000E+00
-0.1155630E+01  0.0000000E+00
-0.1155120E+01  0.0000000E+00
-0.1154610E+01  0.0000000E+00
-0.1154100E+01  0.0000000E+00
-0.1153590E+01  0.0000000E+00
-0.1153080E+01  0.0000000E+00
-0.1152570E+01  0.0000000E+00
-0.1152060E+01  0.0000000E+00
-0.1151550E+01  0.0000000E+00
-0.1151040E+01  0.0000000E+00
-0.1150530E+01  0.0000000E+00
-0.1150020E+01  0.0000000E+00
-0.1149510E+01  0.0000000E+00
-0.1149000E+01  0.0000000E+00
-0.1148490E+01  0.0000000E+00
-0.1147980E+01  0.0000000E+00
-0.1147470E+01  0.0000000E+00
-0.1146960E+01  0.0000000E+00
-0.1146450E+01  0.0000000E+00
-0.1145940E+01  0.0000000E+00
-0.1145430E+01  0.0000000E+00
-0.1144920E+01  0.0000000E+00
-0.1144410E+01  0.0000000E+00
-0.1143900E+01  0.0000000E+00
-0.1143390E+01  0.0000000E+00
-0.1142880E+01  0.0000000E+00
-0.1142370E+01  0.0000000E+00
-0.1141860E+01  0.0000000E+00
-0.1141350E+01  0.0000000E+00
-0.1140840E+01  0.0000000E+00
-0.1140330E+01  0.0000000E+00
-0.1139820E+01  0.0000000E+00
-0.1139310E+01  0.0000000E+00
-0.1138800E+01  0.0000000E+00
-0.1138290E+01  0.0000000E+00
-0.1137780E+01  0.0000000E+00
-0.1137270E+01  0.0000000E+00
-0.1136760E+01  0.0000000E+00
-0.1136250E+01  0.0000000E+00
-0.1135740E+01  0.0000000E+00
-0.1135230E+01  0.0000000E+00
-0.1134720E+01  0.0000000E+00
-0.1134210E+01  0.0000000E+00
-0.1133700E+01  0.0000000E+00
-0.1133190E+01  0.0000000E+00
-0.1132680E+01  0.0000000E+00
-0.1132170E+01  0.0000000E+00
-0.1131660E+01  0.0000000E+00
-0.1131150E+01  0.0000000E+00
-0.1130640E+01  0.0000000E+00
-0.1130130E+01  0.0000000E+00
-0.1129620E+01  0.0000000E+00
-0.1129110E+01  0.0000000E+00
-0.1128600E+01  0.0000000E+00
-0.1128090E+01  0.0000000E+00
-0.1127580E+01  0.0000000E+00
-0.1127070E+01  0.0000000E+00
-0.1126560E+01  0.0000000E+00
-0.1126050E+01  0.0000000E+00
-0.1125540E+01  0.0000000E+00
-0.1125030E+01  0.0000000E+00
-0.1124520E+01  0.0000000E+00
-0.1124010E+01  0.0000000E+00
-0.1123500E+01  0.0000000E+00
-0.1122990E+01  0.0000000E+00
-0.1122480E+01  0.0000000E+00
-0.1121970E+01  0.0000000E+00
-0.1121460E+01  0.0000000E+00
-0.1120950E+01  0.0000000E+00
-0.1120440E+01  0.0000000E+00
-0.1119930E+01  0.0000000E+00
-0.1119420E+01  0.0000000E+00
-0.1118910E+01  0.0000000E+00
-0.1118400E+01  0.0000000E+00
-0.1117890E+01  0.0000000E+00
-0.1117380E+01  0.0000000E+00
-0.1116870E+01  0.0000000E+00
-0.1116360E+01  0.0000000E+00
-0.1115850E+01  0.0000000E+00
-0.1115340E+01  0.0000000E+00
-0.1114830E+01  0.0000000E+00
-0.1114320E+01  0.0000000E+00
-0.1113810E+01  0.0000000E+00
-0.1113300E+01  0.0000000E+00
-0.1112790E+01  0.0000000E+00
-0.1112280E+01  0.0000000E+00
-0.1111770E+01  0.0000000E+00
-0.1111260E+01  0.0000000E+00
-0.1110750E+01  0.0000000E+00
-0.1110240E+01  0.0000000E+00
-0.1109730E+01  0.0000000E+00
-0.1109220E+01  0.0000000E+00
-0.1108710E+01  0.0000000E+00
-0.1108200E+01  0.0000000E+00
-0.1107690E+01  0.0000000E+00
-0.1107180E+01  0.0000000E+00
-0.1106670E+01  0.0000000E+00
-0.1106160E+01  0.0000000E+00
-0.1105650E+01  0.0000000E+00
-0.1105140E+01  0.0000000E+00
-0.1104630E+01  0.0000000E+00
-0.1104120E+01  0.0000000E+00
-0.1103610E+01  0.0000000E+00
-0.1103100E+01  0.0000000E+00
-0.1102590E+01  0.0000000E+00
-0.1102080E+01  0.0000000E+00
-0.1101570E+01  0.0000000E+00
-0.1101060E+01  0.0000000E+00
-0.1100550E+01  0.0000000E+00
-0.1100040E+01  0.0000000E+00
-0.1099530E+01  0.0000000E+00
-0.1099020E+01  0.0000000E+00
-0.1098510E+01  0.0000000E+00
-0.1098000E+01  0.0000000E+00
-0.1097490E+01  0.0000000E+00
-0.1096980E+01  0.0000000E+00
-0.1096470E+01  0.0000000E+00
-0.1095960E+01  0.0000000E+00
-0.1095450E+01  0.0000000E+00
-0.1094940E+01  0.0000000E+00
-0.1094430E+01  0.0000000E+00
-0.1093920E+01  0.0000000E+00
-0.1093410E+01  0.0000000E+00
-0.1092900E+01  0.0000000E+00
-0.1092390E+01  0.0000000E+00
-0.1091880E+01  0.0000000E+00
-0.1091370E+01  0.0000000E+00
-0.1090860E+01  0.0000000E+00
-0.1090350E+01  0.0000000E+00
-0.1089840E+01  0.0000000E+00
-0.1089330E+01  0.0000000E+00
-0.1088820E+01  0.0000000E+00
-0.1088310E+01  0.0000000E+00
-0.1087800E+01  0.0000000E+00
-0.1087290E+01  0.0000000E+00
-0.1086780E+01  0.0000000E+00
-0.1086270E+01  0.0000000E+00
-0.1085760E+01  0.0000000E+00
-0.1085250E+01  0.0000000E+00
-0.1084740E+01  0.0000000E+00
-0.1084230E+01  0.0000000E+00
-0.1083720E+01  0.0000000E+00
-0.1083210E+01  0.0000000E+00
-0.1082700E+01  0.0000000E+00
-0.1082190E+01  0.0000000E+00
-0.1081680E+01  0.0000000E+00
-0.1081170E+01  0.0000000E+00
-0.1080660E+01  0.0000000E+00
-0.1080150E+01  0.0000000E+00
-0.1079640E+01  0.0000000E+00
-0.1079130E+01  0.0000000E+00
-0.1078620E+01  0.1232641E-37
-0.1078110E+01  0.3305856E-37
-0.1077600E+01  0.6491274E-37
-0.1077090E+01  0.1130743E-36
-0.1076580E+01  0.1771516E-36
-0.1076070E+01  0.2573054E-36
-0.1075560E+01  0.3529026E-36
-0.1075050E+01  0.4599249E-36
-0.1074540E+01  0.5659009E-36
-0.1074030E+01  0.6583934E-36
-0.1073520E+01  0.7214528E-36
-0.1073010E+01  0.7337081E-36
-0.1072500E+01  0.6632321E-36
-0.1071990E+01  0.4715311E-36
-0.1071480E+01  0.1106385E-36
-0.1070970E+01 -0.4772964E-36
-0.1070460E+01 -0.1363756E-35
-0.1069950E+01 -0.2623189E-35
-0.1069440E+01 -0.4338875E-35
-0.1068930E+01 -0.6597783E-35
-0.1068420E+01 -0.9484225E-35
-0.1067910E+01 -0.1307063E-34
-0.1067400E+01 -0.1740481E-34
-0.1066890E+01 -0.2249244E-34
-0.1066380E+01 -0.2827381E-34
-0.1065870E+01 -0.3459567E-34
-0.1065360E+01 -0.4117417E-34
-0.1064850E+01 -0.4755239E-34
-0.1064340E+01 -0.5305069E-34
-0.1063830E+01 -0.5671135E-34
-0.1063320E+01 -0.5723939E-34
-0.1062810E+01 -0.5294266E-34
-0.1062300E+01 -0.4167607E-34
-0.1061790E+01 -0.2079649E-34
-0.1061280E+01  0.1286252E-34
-0.1060770E+01  0.6298443E-34
-0.1060260E+01  0.1337173E-33
-0.1059750E+01  0.2295576E-33
-0.1059240E+01  0.3551481E-33
-0.1058730E+01  0.5149683E-33
-0.1058220E+01  0.7128881E-33
-0.1057710E+01  0.9515591E-33
-0.1057200E+01  0.1231616E-32
-0.1056690E+01  0.1550659E-32
-0.1056180E+01  0.1902010E-32
-0.1055670E+01  0.2273208E-32
-0.1055160E+01  0.2644280E-32
-0.1054650E+01  0.2985786E-32
-0.1054140E+01  0.3256699E-32
-0.1053630E+01  0.3402216E-32
-0.1053120E+01  0.3351620E-32
-0.1052610E+01  0.3016382E-32
-0.1052100E+01  0.2288762E-32
-0.1051590E+01  0.1041211E-32
-0.1051080E+01 -0.8730134E-33
-0.1050570E+01 -0.3617544E-32
-0.1050060E+01 -0.7368359E-32
-0.1049550E+01 -0.1230635E-31
-0.1049040E+01 -0.1860633E-31
-0.1048530E+01 -0.2642172E-31
-0.1048020E+01 -0.3586426E-31
-0.1047510E+01 -0.4697801E-31
-0.1047000E+01 -0.5970712E-31
-0.1046490E+01 -0.7385712E-31
-0.1045980E+01 -0.8904962E-31
-0.1045470E+01 -0.1046711E-30
-0.1044960E+01 -0.1198163E-30
-0.1044450E+01 -0.1332294E-30
-0.1043940E+01 -0.1432434E-30
-0.1043430E+01 -0.1477246E-30
-0.1042920E+01 -0.1440247E-30
-0.1042410E+01 -0.1289489E-30
-0.1041900E+01 -0.9874787E-31
-0.1041390E+01 -0.4914263E-31
-0.1040880E+01  0.2460503E-31
-0.1040370E+01  0.1275645E-30
-0.1039860E+01  0.2649367E-30
-0.1039350E+01  0.4417678E-30
-0.1038840E+01  0.6625627E-30
-0.1038330E+01  0.9307839E-30
-0.1037820E+01  0.1248226E-29
-0.1037310E+01  0.1614258E-29
-0.1036800E+01  0.2024931E-29
-0.1036290E+01  0.2471965E-29
-0.1035780E+01  0.2941616E-29
-0.1035270E+01  0.3413478E-29
-0.1034760E+01  0.3859241E-29
-0.1034250E+01  0.4241488E-29
-0.1033740E+01  0.4512611E-29
-0.1033230E+01  0.4613950E-29
-0.1032720E+01  0.4475301E-29
-0.1032210E+01  0.4014940E-29
-0.1031700E+01  0.3140356E-29
-0.1031190E+01  0.1749884E-29
-0.1030680E+01 -0.2645236E-30
-0.1030170E+01 -0.3013182E-29
-0.1029660E+01 -0.6602976E-29
-0.1029150E+01 -0.1112988E-28
-0.1028640E+01 -0.1666953E-28
-0.1028130E+01 -0.2326572E-28
-0.1027620E+01 -0.3091684E-28
-0.1027110E+01 -0.3956027E-28
-0.1026600E+01 -0.4905507E-28
-0.1026090E+01 -0.5916325E-28
-0.1025580E+01 -0.6953042E-28
-0.1025070E+01 -0.7966647E-28
-0.1024560E+01 -0.8892773E-28
-0.1024050E+01 -0.9650175E-28
-0.1023540E+01 -0.1013967E-27
-0.1023030E+01 -0.1024373E-27
-0.1022520E+01 -0.9827002E-28
-0.1022010E+01 -0.8737902E-28
-0.1021500E+01 -0.6811748E-28
-0.1020990E+01 -0.3875518E-28
-0.1020480E+01  0.2453644E-29
-0.1019970E+01  0.5718032E-28
-0.1019460E+01  0.1269073E-27
-0.1018950E+01  0.2127883E-27
-0.1018440E+01  0.3154824E-27
-0.1017930E+01  0.4349640E-27
-0.1017420E+01  0.5703100E-27
-0.1016910E+01  0.7194715E-27
-0.1016400E+01  0.8790343E-27
-0.1015890E+01  0.1043981E-26
-0.1015380E+01  0.1207464E-26
-0.1014870E+01  0.1360614E-26
-0.1014360E+01  0.1492387E-26
-0.1013850E+01  0.1589493E-26
-0.1013340E+01  0.1636410E-26
-0.1012830E+01  0.1615530E-26
-0.1012320E+01  0.1507449E-26
-0.1011810E+01  0.1291439E-26
-0.1011300E+01  0.9461260E-27
-0.1010790E+01  0.4503959E-27
-0.1010280E+01 -0.2154488E-27
-0.1009770E+01 -0.1068277E-26
-0.1009260E+01 -0.2120457E-26
-0.1008750E+01 -0.3377945E-26
-0.1008240E+01 -0.4838154E-26
-0.1007730E+01 -0.6487666E-26
-0.1007220E+01 -0.8299854E-26
-0.1006710E+01 -0.1023251E-25
-0.1006200E+01 -0.1222559E-25
-0.1005690E+01 -0.1419927E-25
-0.1005180E+01 -0.1605246E-25
-0.1004670E+01 -0.1766189E-25
-0.1004160E+01 -0.1888223E-25
-0.1003650E+01 -0.1954718E-25
-0.1003140E+01 -0.1947196E-25
-0.1002630E+01 -0.1845745E-25
-0.1002120E+01 -0.1629602E-25
-0.1001610E+01 -0.1277941E-25
-0.1001100E+01 -0.7708741E-26
-0.1000590E+01 -0.9066048E-27
-0.1000080E+01  0.7768629E-26
-0.9995700E+00  0.1840660E-25
-0.9990600E+00  0.3102705E-25
-0.9985500E+00  0.4556073E-25
-0.9980400E+00  0.6182965E-25
-0.9975300E+00  0.7952771E-25
-0.9970200E+00  0.9820240E-25
-0.9965100E+00  0.1172391E-24
-0.9960000E+00  0.1358493E-24
-0.9954900E+00  0.1530637E-24
-0.9949800E+00  0.1677332E-24
-0.9944700E+00  0.1785381E-24
-0.9939600E+00  0.1840073E-24
-0.9934500E+00  0.1825509E-24
-0.9929400E+00  0.1725049E-24
-0.9924300E+00  0.1521913E-24
-0.9919200E+00  0.1199933E-24
-0.9914100E+00  0.7444547E-25
-0.9909000E+00  0.1433872E-25
-0.9903900E+00 -0.6116130E-25
-0.9898800E+00 -0.1523857E-24
-0.9893700E+00 -0.2590264E-24
-0.9888600E+00 -0.3799989E-24
-0.9883500E+00 -0.5133072E-24
-0.9878400E+00 -0.6559220E-24
-0.9873300E+00 -0.8036764E-24
-0.9868200E+00 -0.9511916E-24
-0.9863100E+00 -0.1091842E-23
-0.9858000E+00 -0.1217766E-23
-0.9852900E+00 -0.1319946E-23
-0.9847800E+00 -0.1388348E-23
-0.9842700E+00 -0.1412147E-23
-0.9837600E+00 -0.1380041E-23
-0.9832500E+00 -0.1280652E-23
-0.9827400E+00 -0.1103026E-23
-0.9822300E+00 -0.8372197E-24
-0.9817200E+00 -0.4749787E-24
-0.9812100E+00 -0.1048220E-25
-0.9807000E+00  0.5588559E-24
-0.9801900E+00  0.1231557E-23
-0.9796800E+00  0.2001253E-23
-0.9791700E+00  0.2855898E-23
-0.9786600E+00  0.3777077E-23
-0.9781500E+00  0.4739438E-23
-0.9776400E+00  0.5710332E-23
-0.9771300E+00  0.6649686E-23
-0.9766200E+00  0.7510204E-23
-0.9761100E+00  0.8237909E-23
-0.9756000E+00  0.8773127E-23
-0.9750900E+00  0.9051910E-23
-0.9745800E+00  0.9007955E-23
-0.9740700E+00  0.8575035E-23
-0.9735600E+00  0.7689918E-23
-0.9730500E+00  0.6295764E-23
-0.9725400E+00  0.4345935E-23
-0.9720300E+00  0.1808132E-23
-0.9715200E+00 -0.1331265E-23
-0.9710100E+00 -0.5062790E-23
-0.9705000E+00 -0.9349623E-23
-0.9699900E+00 -0.1412366E-22
-0.9694800E+00 -0.1928220E-22
-0.9689700E+00 -0.2468542E-22
-0.9684600E+00 -0.3015509E-22
-0.9679500E+00 -0.3547458E-22
-0.9674400E+00 -0.4039071E-22
-0.9669300E+00 -0.4461738E-22
-0.9664200E+00 -0.4784148E-22
-0.9659100E+00 -0.4973108E-22
-0.9654000E+00 -0.4994602E-22
-0.9648900E+00 -0.4815088E-22
-0.9643800E+00 -0.4403025E-22
-0.9638700E+00 -0.3730608E-22
-0.9633600E+00 -0.2775667E-22
-0.9628500E+00 -0.1523680E-22
-0.9623400E+00  0.3015768E-24
-0.9618300E+00  0.1878900E-22
-0.9613200E+00  0.4001939E-22
-0.9608100E+00  0.6363329E-22
-0.9603000E+00  0.8910452E-22
-0.9597900E+00  0.1157316E-21
-0.9592800E+00  0.1426350E-21
-0.9587700E+00  0.1687616E-21
-0.9582600E+00  0.1928974E-21
-0.9577500E+00  0.2136891E-21
-0.9572400E+00  0.2296759E-21
-0.9567300E+00  0.2393314E-21
-0.9562200E+00  0.2411156E-21
-0.9557100E+00  0.2335373E-21
-0.9552000E+00  0.2152248E-21
-0.9546900E+00  0.1850044E-21
-0.9541800E+00  0.1419848E-21
-0.9536700E+00  0.8564302E-22
-0.9531600E+00  0.1591141E-22
-0.9526500E+00 -0.6674061E-22
-0.9521400E+00 -0.1612327E-21
-0.9516300E+00 -0.2658127E-21
-0.9511200E+00 -0.3780138E-21
-0.9506100E+00 -0.4946342E-21
-0.9501000E+00 -0.6117434E-21
-0.9495900E+00 -0.7247215E-21
-0.9490800E+00 -0.8283323E-21
-0.9485700E+00 -0.9168350E-21
-0.9480600E+00 -0.9841362E-21
-0.9475500E+00 -0.1023981E-20
-0.9470400E+00 -0.1030181E-20
-0.9465300E+00 -0.9968829E-21
-0.9460200E+00 -0.9188585E-21
-0.9455100E+00 -0.7918237E-21
-0.9450000E+00 -0.6127665E-21
-0.9444900E+00 -0.3802771E-21
-0.9439800E+00 -0.9486437E-22
-0.9434700E+00  0.2407555E-21
-0.9429600E+00  0.6214149E-21
-0.9424500E+00  0.1039314E-20
-0.9419400E+00  0.1483915E-20
-0.9414300E+00  0.1941941E-20
-0.9409200E+00  0.2397473E-20
-0.9404100E+00  0.2832187E-20
-0.9399000E+00  0.3225709E-20
-0.9393900E+00  0.3556124E-20
-0.9388800E+00  0.3800615E-20
-0.9383700E+00  0.3936244E-20
-0.9378600E+00  0.3940854E-20
-0.9373500E+00  0.3794075E-20
-0.9368400E+00  0.3478417E-20
-0.9363300E+00  0.2980406E-20
-0.9358200E+00  0.2291725E-20
-0.9353100E+00  0.1410325E-20
-0.9348000E+00  0.3414433E-21
-0.9342900E+00 -0.9015215E-21
-0.9337800E+00 -0.2296330E-20
-0.9332700E+00 -0.3811483E-20
-0.9327600E+00 -0.5406111E-20
-0.9322500E+00 -0.7030227E-20
-0.9317400E+00 -0.8625378E-20
-0.9312300E+00 -0.1012573E-19
-0.9307200E+00 -0.1145961E-19
-0.9302100E+00 -0.1255149E-19
-0.9297000E+00 -0.1332444E-19
-0.9291900E+00 -0.1370292E-19
-0.9286800E+00 -0.1361599E-19
-0.9281700E+00 -0.1300072E-19
-0.9276600E+00 -0.1180584E-19
-0.9271500E+00 -0.9995297E-20
-0.9266400E+00 -0.7551883E-20
-0.9261300E+00 -0.4480461E-20
-0.9256200E+00 -0.8108452E-21
-0.9251100E+00  0.3399936E-20
-0.9246000E+00  0.8066143E-20
-0.9240900E+00  0.1307276E-19
-0.9235800E+00  0.1827600E-19
-0.9230700E+00  0.2350500E-19
-0.9225600E+00  0.2856487E-19
-0.9220500E+00  0.3324100E-19
-0.9215400E+00  0.3730475E-19
-0.9210300E+00  0.4052050E-19
-0.9205200E+00  0.4265380E-19
-0.9200100E+00  0.4348061E-19
-0.9195000E+00  0.4279731E-19
-0.9189900E+00  0.4043121E-19
-0.9184800E+00  0.3625122E-19
-0.9179700E+00  0.3017825E-19
-0.9174600E+00  0.2219497E-19
-0.9169500E+00  0.1235432E-19
-0.9164400E+00  0.7864751E-21
-0.9159300E+00 -0.1229640E-19
-0.9154200E+00 -0.2659788E-19
-0.9149100E+00 -0.4173811E-19
-0.9144000E+00 -0.5725780E-19
-0.9138900E+00 -0.7262593E-19
-0.9133800E+00 -0.8725111E-19
-0.9128700E+00 -0.1004966E-18
-0.9123600E+00 -0.1116991E-18
-0.9118500E+00 -0.1201905E-18
-0.9113400E+00 -0.1253227E-18
-0.9108300E+00 -0.1264951E-18
-0.9103200E+00 -0.1231820E-18
-0.9098100E+00 -0.1149627E-18
-0.9093000E+00 -0.1015490E-18
-0.9087900E+00 -0.8281231E-19
-0.9082800E+00 -0.5880730E-19
-0.9077700E+00 -0.2979127E-19
-0.9072600E+00  0.3761635E-20
-0.9067500E+00  0.4115302E-19
-0.9062400E+00  0.8146041E-19
-0.9057300E+00  0.1235459E-18
-0.9052200E+00  0.1660742E-18
-0.9047100E+00  0.2075396E-18
-0.9042000E+00  0.2463034E-18
-0.9036900E+00  0.2806394E-18
-0.9031800E+00  0.3087890E-18
-0.9026700E+00  0.3290227E-18
-0.9021600E+00  0.3397078E-18
-0.9016500E+00  0.3393800E-18
-0.9011400E+00  0.3268163E-18
-0.9006300E+00  0.3011071E-18
-0.9001200E+00  0.2617244E-18
-0.8996100E+00  0.2085828E-18
-0.8991000E+00  0.1420910E-18
-0.8985900E+00  0.6319016E-19
-0.8980800E+00 -0.2662345E-19
-0.8975700E+00 -0.1252940E-18
-0.8970600E+00 -0.2302223E-18
-0.8965500E+00 -0.3383030E-18
-0.8960400E+00 -0.4459861E-18
-0.8955300E+00 -0.5493593E-18
-0.8950200E+00 -0.6442544E-18
-0.8945100E+00 -0.7263728E-18
-0.8940000E+00 -0.7914289E-18
-0.8934900E+00 -0.8353085E-18
-0.8929800E+00 -0.8542363E-18
-0.8924700E+00 -0.8449483E-18
-0.8919600E+00 -0.8048627E-18
-0.8914500E+00 -0.7322428E-18
-0.8909400E+00 -0.6263458E-18
-0.8904300E+00 -0.4875493E-18
-0.8899200E+00 -0.3174497E-18
-0.8894100E+00 -0.1189257E-18
-0.8889000E+00  0.1038387E-18
-0.8883900E+00  0.3453770E-18
-0.8878800E+00  0.5990109E-18
-0.8873700E+00  0.8569736E-18
-0.8868600E+00  0.1110583E-17
-0.8863500E+00  0.1350466E-17
-0.8858400E+00  0.1566828E-17
-0.8853300E+00  0.1749763E-17
-0.8848200E+00  0.1889604E-17
-0.8843100E+00  0.1977281E-17
-0.8838000E+00  0.2004714E-17
-0.8832900E+00  0.1965186E-17
-0.8827800E+00  0.1853714E-17
-0.8822700E+00  0.1667389E-17
-0.8817600E+00  0.1405671E-17
-0.8812500E+00  0.1070624E-17
-0.8807400E+00  0.6670906E-18
-0.8802300E+00  0.2027643E-18
-0.8797200E+00 -0.3118166E-18
-0.8792100E+00 -0.8633872E-18
-0.8787000E+00 -0.1436179E-17
-0.8781900E+00 -0.2012250E-17
-0.8776800E+00 -0.2571928E-17
-0.8771700E+00 -0.3094346E-17
-0.8766600E+00 -0.3558075E-17
-0.8761500E+00 -0.3941825E-17
-0.8756400E+00 -0.4225207E-17
-0.8751300E+00 -0.4389531E-17
-0.8746200E+00 -0.4418603E-17
-0.8741100E+00 -0.4299515E-17
-0.8736000E+00 -0.4023374E-17
-0.8730900E+00 -0.3585964E-17
-0.8725800E+00 -0.2988289E-17
-0.8720700E+00 -0.2236980E-17
-0.8715600E+00 -0.1344547E-17
-0.8710500E+00 -0.3294348E-18
-0.8705400E+00  0.7841214E-18
-0.8700300E+00  0.1966451E-17
-0.8695200E+00  0.3183028E-17
-0.8690100E+00  0.4395264E-17
-0.8685000E+00  0.5561510E-17
-0.8679900E+00  0.6638249E-17
-0.8674800E+00  0.7581442E-17
-0.8669700E+00  0.8348012E-17
-0.8664600E+00  0.8897403E-17
-0.8659500E+00  0.9193183E-17
-0.8654400E+00  0.9204628E-17
-0.8649300E+00  0.8908238E-17
-0.8644200E+00  0.8289112E-17
-0.8639100E+00  0.7342149E-17
-0.8634000E+00  0.6072990E-17
-0.8628900E+00  0.4498672E-17
-0.8623800E+00  0.2647934E-17
-0.8618700E+00  0.5611470E-18
-0.8613600E+00 -0.1710163E-17
-0.8608500E+00 -0.4104210E-17
-0.8603400E+00 -0.6550271E-17
-0.8598300E+00 -0.8970401E-17
-0.8593200E+00 -0.1128154E-16
-0.8588100E+00 -0.1339795E-16
-0.8583000E+00 -0.1523393E-16
-0.8577900E+00 -0.1670668E-16
-0.8572800E+00 -0.1773941E-16
-0.8567700E+00 -0.1826430E-16
-0.8562600E+00 -0.1822552E-16
-0.8557500E+00 -0.1758197E-16
-0.8552400E+00 -0.1630978E-16
-0.8547300E+00 -0.1440435E-16
-0.8542200E+00 -0.1188192E-16
-0.8537100E+00 -0.8780569E-17
-0.8532000E+00 -0.5160459E-17
-0.8526900E+00 -0.1103452E-17
-0.8521800E+00  0.3288102E-17
-0.8516700E+00  0.7893334E-17
-0.8511600E+00  0.1257558E-16
-0.8506500E+00  0.1718587E-16
-0.8501400E+00  0.2156698E-16
-0.8496300E+00  0.2555821E-16
-0.8491200E+00  0.2900039E-16
-0.8486100E+00  0.3174141E-16
-0.8481000E+00  0.3364172E-16
-0.8475900E+00  0.3457986E-16
-0.8470800E+00  0.3445776E-16
-0.8465700E+00  0.3320559E-16
-0.8460600E+00  0.3078605E-16
-0.8455500E+00  0.2719776E-16
-0.8450400E+00  0.2247776E-16
-0.8445300E+00  0.1670291E-16
-0.8440200E+00  0.9989947E-17
-0.8435100E+00  0.2494329E-17
-0.8430000E+00 -0.5592348E-17
-0.8424900E+00 -0.1404629E-16
-0.8419800E+00 -0.2261676E-16
-0.8414700E+00 -0.3103263E-16
-0.8409600E+00 -0.3900994E-16
-0.8404500E+00 -0.4626044E-16
-0.8399400E+00 -0.5250083E-16
-0.8394300E+00 -0.5746235E-16
-0.8389200E+00 -0.6090063E-16
-0.8384100E+00 -0.6260521E-16
-0.8379000E+00 -0.6240866E-16
-0.8373900E+00 -0.6019478E-16
-0.8368800E+00 -0.5590568E-16
-0.8363700E+00 -0.4954730E-16
-0.8358600E+00 -0.4119328E-16
-0.8353500E+00 -0.3098671E-16
-0.8348400E+00 -0.1913979E-16
-0.8343300E+00 -0.5931201E-17
-0.8338200E+00  0.8298935E-17
-0.8333100E+00  0.2315637E-16
-0.8328000E+00  0.3820230E-16
-0.8322900E+00  0.5296491E-16
-0.8317800E+00  0.6695280E-16
-0.8312700E+00  0.7966972E-16
-0.8307600E+00  0.9063049E-16
-0.8302500E+00  0.9937738E-16
-0.8297400E+00  0.1054966E-15
-0.8292300E+00  0.1086344E-15
-0.8287200E+00  0.1085120E-15
-0.8282100E+00  0.1049390E-15
-0.8277000E+00  0.9782487E-16
-0.8271900E+00  0.8718751E-16
-0.8266800E+00  0.7315905E-16
-0.8261700E+00  0.5598815E-16
-0.8256600E+00  0.3603864E-16
-0.8251500E+00  0.1378439E-16
-0.8246400E+00 -0.1019974E-16
-0.8241300E+00 -0.3525072E-16
-0.8236200E+00 -0.6063370E-16
-0.8231100E+00 -0.8556164E-16
-0.8226000E+00 -0.1092178E-15
-0.8220900E+00 -0.1307801E-15
-0.8215800E+00 -0.1494476E-15
-0.8210700E+00 -0.1644670E-15
-0.8205600E+00 -0.1751599E-15
-0.8200500E+00 -0.1809481E-15
-0.8195400E+00 -0.1813779E-15
-0.8190300E+00 -0.1761413E-15
-0.8185200E+00 -0.1650938E-15
-0.8180100E+00 -0.1482675E-15
-0.8175000E+00 -0.1258800E-15
-0.8169900E+00 -0.9833670E-16
-0.8164800E+00 -0.6622828E-16
-0.8159700E+00 -0.3032136E-16
-0.8154600E+00  0.8456640E-17
-0.8149500E+00  0.4903869E-16
-0.8144400E+00  0.9024488E-16
-0.8139300E+00  0.1308141E-15
-0.8134200E+00  0.1694401E-15
-0.8129100E+00  0.2048105E-15
-0.8124000E+00  0.2356484E-15
-0.8118900E+00  0.2607544E-15
-0.8113800E+00  0.2790488E-15
-0.8108700E+00  0.2896120E-15
-0.8103600E+00  0.2917213E-15
-0.8098500E+00  0.2848836E-15
-0.8093400E+00  0.2688628E-15
-0.8088300E+00  0.2436995E-15
-0.8083200E+00  0.2097232E-15
-0.8078100E+00  0.1675566E-15
-0.8073000E+00  0.1181097E-15
-0.8067900E+00  0.6256494E-16
-0.8062800E+00  0.2353256E-17
-0.8057700E+00 -0.6087922E-16
-0.8052600E+00 -0.1253128E-15
-0.8047500E+00 -0.1890033E-15
-0.8042400E+00 -0.2499371E-15
-0.8037300E+00 -0.3060918E-15
-0.8032200E+00 -0.3554988E-15
-0.8027100E+00 -0.3963077E-15
-0.8022000E+00 -0.4268502E-15
-0.8016900E+00 -0.4457005E-15
-0.8011800E+00 -0.4517316E-15
-0.8006700E+00 -0.4441635E-15
-0.8001600E+00 -0.4226041E-15
-0.7996500E+00 -0.3870784E-15
-0.7991400E+00 -0.3380471E-15
-0.7986300E+00 -0.2764110E-15
-0.7981200E+00 -0.2035029E-15
-0.7976100E+00 -0.1210649E-15
-0.7971000E+00 -0.3121173E-16
-0.7965900E+00  0.6361826E-16
-0.7960800E+00  0.1607257E-15
-0.7955700E+00  0.2572226E-15
-0.7950600E+00  0.3501147E-15
-0.7945500E+00  0.4363895E-15
-0.7940400E+00  0.5131100E-15
-0.7935300E+00  0.5775087E-15
-0.7930200E+00  0.6270809E-15
-0.7925100E+00  0.6596740E-15
-0.7920000E+00  0.6735688E-15
-0.7914900E+00  0.6675507E-15
-0.7909800E+00  0.6409688E-15
-0.7904700E+00  0.5937786E-15
-0.7899600E+00  0.5265689E-15
-0.7894500E+00  0.4405687E-15
-0.7889400E+00  0.3376355E-15
-0.7884300E+00  0.2202228E-15
-0.7879200E+00  0.9132826E-16
-0.7874100E+00 -0.4557766E-16
-0.7869000E+00 -0.1866399E-15
-0.7863900E+00 -0.3277231E-15
-0.7858800E+00 -0.4645281E-15
-0.7853700E+00 -0.5927183E-15
-0.7848600E+00 -0.7080525E-15
-0.7843500E+00 -0.8065185E-15
-0.7838400E+00 -0.8844662E-15
-0.7833300E+00 -0.9387339E-15
-0.7828200E+00 -0.9667636E-15
-0.7823100E+00 -0.9667028E-15
-0.7818000E+00 -0.9374879E-15
-0.7812900E+00 -0.8789062E-15
-0.7807800E+00 -0.7916336E-15
-0.7802700E+00 -0.6772470E-15
-0.7797600E+00 -0.5382084E-15
-0.7792500E+00 -0.3778212E-15
-0.7787400E+00 -0.2001598E-15
-0.7782300E+00 -0.9971919E-17
-0.7777200E+00  0.1874431E-15
-0.7772100E+00  0.3863766E-15
-0.7767000E+00  0.5808718E-15
-0.7761900E+00  0.7648967E-15
-0.7756800E+00  0.9325266E-15
-0.7751700E+00  0.1078129E-14
-0.7746600E+00  0.1196544E-14
-0.7741500E+00  0.1283263E-14
-0.7736400E+00  0.1334581E-14
-0.7731300E+00  0.1347744E-14
-0.7726200E+00  0.1321061E-14
-0.7721100E+00  0.1253990E-14
-0.7716000E+00  0.1147197E-14
-0.7710900E+00  0.1002568E-14
-0.7705800E+00  0.8232003E-15
-0.7700700E+00  0.6133393E-15
-0.7695600E+00  0.3782908E-15
-0.7690500E+00  0.1242919E-15
-0.7685400E+00 -0.1416489E-15
-0.7680300E+00 -0.4119403E-15
-0.7675200E+00 -0.6786207E-15
-0.7670100E+00 -0.9335886E-15
-0.7665000E+00 -0.1168844E-14
-0.7659900E+00 -0.1376734E-14
-0.7654800E+00 -0.1550195E-14
-0.7649700E+00 -0.1682987E-14
-0.7644600E+00 -0.1769903E-14
-0.7639500E+00 -0.1806962E-14
-0.7634400E+00 -0.1791563E-14
-0.7629300E+00 -0.1722603E-14
-0.7624200E+00 -0.1600557E-14
-0.7619100E+00 -0.1427508E-14
-0.7614000E+00 -0.1207129E-14
-0.7608900E+00 -0.9446178E-15
-0.7603800E+00 -0.6465838E-15
-0.7598700E+00 -0.3208873E-15
-0.7593600E+00  0.2356248E-16
-0.7588500E+00  0.3770475E-15
-0.7583400E+00  0.7293113E-15
-0.7578300E+00  0.1069854E-14
-0.7573200E+00  0.1388240E-14
-0.7568100E+00  0.1674418E-14
-0.7563000E+00  0.1919029E-14
-0.7557900E+00  0.2113708E-14
-0.7552800E+00  0.2251362E-14
-0.7547700E+00  0.2326416E-14
-0.7542600E+00  0.2335015E-14
-0.7537500E+00  0.2275192E-14
-0.7532400E+00  0.2146967E-14
-0.7527300E+00  0.1952397E-14
-0.7522200E+00  0.1695568E-14
-0.7517100E+00  0.1382521E-14
-0.7512000E+00  0.1021117E-14
-0.7506900E+00  0.6208455E-15
-0.7501800E+00  0.1925800E-15
-0.7496700E+00 -0.2517146E-15
-0.7491600E+00 -0.6993152E-15
-0.7486500E+00 -0.1137103E-14
-0.7481400E+00 -0.1551947E-14
-0.7476300E+00 -0.1931097E-14
-0.7471200E+00 -0.2262569E-14
-0.7466100E+00 -0.2535528E-14
-0.7461000E+00 -0.2740627E-14
-0.7455900E+00 -0.2870328E-14
-0.7450800E+00 -0.2919159E-14
-0.7445700E+00 -0.2883924E-14
-0.7440600E+00 -0.2763847E-14
-0.7435500E+00 -0.2560645E-14
-0.7430400E+00 -0.2278528E-14
-0.7425300E+00 -0.1924126E-14
-0.7420200E+00 -0.1506339E-14
-0.7415100E+00 -0.1036119E-14
-0.7410000E+00 -0.5261853E-15
-0.7404900E+00  0.9321016E-17
-0.7399800E+00  0.5552285E-15
-0.7394700E+00  0.1095766E-14
-0.7389600E+00  0.1615022E-14
-0.7384500E+00  0.2097411E-14
-0.7379400E+00  0.2528145E-14
-0.7374300E+00  0.2893684E-14
-0.7369200E+00  0.3182162E-14
-0.7364100E+00  0.3383770E-14
-0.7359000E+00  0.3491076E-14
-0.7353900E+00  0.3499293E-14
-0.7348800E+00  0.3406462E-14
-0.7343700E+00  0.3213558E-14
-0.7338600E+00  0.2924511E-14
-0.7333500E+00  0.2546136E-14
-0.7328400E+00  0.2087977E-14
-0.7323300E+00  0.1562070E-14
-0.7318200E+00  0.9826260E-15
-0.7313100E+00  0.3656438E-15
-0.7308000E+00 -0.2715357E-15
-0.7302900E+00 -0.9107205E-15
-0.7297800E+00 -0.1533392E-14
-0.7292700E+00 -0.2121247E-14
-0.7287600E+00 -0.2656738E-14
-0.7282500E+00 -0.3123603E-14
-0.7277400E+00 -0.3507363E-14
-0.7272300E+00 -0.3795766E-14
-0.7267200E+00 -0.3979185E-14
-0.7262100E+00 -0.4050925E-14
-0.7257000E+00 -0.4007468E-14
-0.7251900E+00 -0.3848605E-14
-0.7246800E+00 -0.3577489E-14
-0.7241700E+00 -0.3200578E-14
-0.7236600E+00 -0.2727488E-14
-0.7231500E+00 -0.2170741E-14
-0.7226400E+00 -0.1545433E-14
-0.7221300E+00 -0.8688196E-15
-0.7216200E+00 -0.1598308E-15
-0.7211100E+00  0.5614648E-15
-0.7206000E+00  0.1274437E-14
-0.7200900E+00  0.1958492E-14
-0.7195800E+00  0.2593678E-14
-0.7190700E+00  0.3161269E-14
-0.7185600E+00  0.3644331E-14
-0.7180500E+00  0.4028225E-14
-0.7175400E+00  0.4301061E-14
-0.7170300E+00  0.4454060E-14
-0.7165200E+00  0.4481845E-14
-0.7160100E+00  0.4382614E-14
-0.7155000E+00  0.4158223E-14
-0.7149900E+00  0.3814161E-14
-0.7144800E+00  0.3359407E-14
-0.7139700E+00  0.2806201E-14
-0.7134600E+00  0.2169699E-14
-0.7129500E+00  0.1467553E-14
-0.7124400E+00  0.7194136E-15
-0.7119300E+00 -0.5363612E-16
-0.7114200E+00 -0.8296817E-15
-0.7109100E+00 -0.1586613E-14
-0.7104000E+00 -0.2302765E-14
-0.7098900E+00 -0.2957550E-14
-0.7093800E+00 -0.3532058E-14
-0.7088700E+00 -0.4009613E-14
-0.7083600E+00 -0.4376268E-14
-0.7078500E+00 -0.4621210E-14
-0.7073400E+00 -0.4737090E-14
-0.7068300E+00 -0.4720243E-14
-0.7063200E+00 -0.4570799E-14
-0.7058100E+00 -0.4292690E-14
-0.7053000E+00 -0.3893541E-14
-0.7047900E+00 -0.3384455E-14
-0.7042800E+00 -0.2779694E-14
-0.7037700E+00 -0.2096268E-14
-0.7032600E+00 -0.1353446E-14
-0.7027500E+00 -0.5721963E-15
-0.7022400E+00  0.2254166E-15
-0.7017300E+00  0.1016872E-14
-0.7012200E+00  0.1779844E-14
-0.7007100E+00  0.2492844E-14
-0.7002000E+00  0.3135841E-14
-0.6996900E+00  0.3690834E-14
-0.6991800E+00  0.4142370E-14
-0.6986700E+00  0.4477979E-14
-0.6981600E+00  0.4688525E-14
-0.6976500E+00  0.4768459E-14
-0.6971400E+00  0.4715964E-14
-0.6966300E+00  0.4532991E-14
-0.6961200E+00  0.4225188E-14
-0.6956100E+00  0.3801717E-14
-0.6951000E+00  0.3274977E-14
-0.6945900E+00  0.2660222E-14
-0.6940800E+00  0.1975113E-14
-0.6935700E+00  0.1239192E-14
-0.6930600E+00  0.4733094E-15
-0.6925500E+00 -0.3009841E-15
-0.6920400E+00 -0.1062059E-14
-0.6915300E+00 -0.1788828E-14
-0.6910200E+00 -0.2461344E-14
-0.6905100E+00 -0.3061363E-14