-0.1200000E+01 -0.2704522E-15
-0.1199490E+01 -0.2759028E-15
-0.1198980E+01 -0.2814618E-15
-0.1198470E+01 -0.2871315E-15
-0.1197960E+01 -0.2929140E-15
-0.1197450E+01 -0.2988114E-15
-0.1196940E+01 -0.3048259E-15
-0.1196430E+01 -0.3109599E-15
-0.1195920E+01 -0.3172155E-15
-0.1195410E+01 -0.3235953E-15
-0.1194900E+01 -0.3301015E-15
-0.1194390E+01 -0.3367366E-15
-0.1193880E+01 -0.3435032E-15
-0.1193370E+01 -0.3504037E-15
-0.1192860E+01 -0.3574409E-15
-0.1192350E+01 -0.3646173E-15
-0.1191840E+01 -0.3719357E-15
-0.1191330E+01 -0.3793990E-15
-0.1190820E+01 -0.3870099E-15
-0.1190310E+01 -0.3947715E-15
-0.1189800E+01 -0.4026866E-15
-0.1189290E+01 -0.4107582E-15
-0.1188780E+01 -0.4189896E-15
-0.1188270E+01 -0.4273838E-15
-0.1187760E+01 -0.4359439E-15
-0.1187250E+01 -0.4446733E-15
-0.1186740E+01 -0.4535753E-15
-0.1186230E+01 -0.4626533E-15
-0.1185720E+01 -0.4719105E-15
-0.1185210E+01 -0.4813505E-15
-0.1184700E+01 -0.4909769E-15
-0.1184190E+01 -0.5007932E-15
-0.1183680E+01 -0.5108031E-15
-0.1183170E+01 -0.5210103E-15
-0.1182660E+01 -0.5314186E-15
-0.1182150E+01 -0.5420319E-15
-0.1181640E+01 -0.5528542E-15
-0.1181130E+01 -0.5638894E-15
-0.1180620E+01 -0.5751417E-15
-0.1180110E+01 -0.5866154E-15
-0.1179600E+01 -0.5983146E-15
-0.1179090E+01 -0.6102438E-15
-0.1178580E+01 -0.6224075E-15
-0.1178070E+01 -0.6348103E-15
-0.1177560E+01 -0.6474567E-15
-0.1177050E+01 -0.6603517E-15
-0.1176540E+01 -0.6734998E-15
-0.1176030E+01 -0.6869062E-15
-0.1175520E+01 -0.7005759E-15
-0.1175010E+01 -0.7145140E-15
-0.1174500E+01 -0.7287257E-15
-0.1173990E+01 -0.7432162E-15
-0.1173480E+01 -0.7579911E-15
-0.1172970E+01 -0.7730557E-15
-0.1172460E+01 -0.7884158E-15
-0.1171950E+01 -0.8040769E-15
-0.1171440E+01 -0.8200448E-15
-0.1170930E+01 -0.8363256E-15
-0.1170420E+01 -0.8529250E-15
-0.1169910E+01 -0.8698493E-15
-0.1169400E+01 -0.8871048E-15
-0.1168890E+01 -0.9046977E-15
-0.1168380E+01 -0.9226344E-15
-0.1167870E+01 -0.9409218E-15
-0.1167360E+01 -0.9595665E-15
-0.1166850E+01 -0.9785753E-15
-0.1166340E+01 -0.9979553E-15
-0.1165830E+01 -0.1017714E-14
-0.1165320E+01 -0.1037858E-14
-0.1164810E+01 -0.1058395E-14
-0.1164300E+01 -0.1079332E-14
-0.1163790E+01 -0.1100678E-14
-0.1163280E+01 -0.1122441E-14
-0.1162770E+01 -0.1144627E-14
-0.1162260E+01 -0.1167246E-14
-0.1161750E+01 -0.1190306E-14
-0.1161240E+01 -0.1213815E-14
-0.1160730E+01 -0.1237783E-14
-0.1160220E+01 -0.1262217E-14
-0.1159710E+01 -0.1287126E-14
-0.1159200E+01 -0.1312521E-14
-0.1158690E+01 -0.1338409E-14
-0.1158180E+01 -0.1364801E-14
-0.1157670E+01 -0.1391706E-14
-0.1157160E+01 -0.1419134E-14
-0.1156650E+01 -0.1447095E-14
-0.1156140E+01 -0.1475599E-14
-0.1155630E+01 -0.1504656E-14
-0.1155120E+01 -0.1534277E-14
-0.1154610E+01 -0.1564473E-14
-0.1154100E+01 -0.1595255E-14
-0.1153590E+01 -0.1626634E-14
-0.1153080E+01 -0.1658621E-14
-0.1152570E+01 -0.1691229E-14
-0.1152060E+01 -0.1724467E-14
-0.1151550E+01 -0.1758350E-14
-0.1151040E+01 -0.1792890E-14
-0.1150530E+01 -0.1828098E-14
-0.1150020E+01 -0.1863987E-14
-0.1149510E+01 -0.1900571E-14
-0.1149000E+01 -0.1937863E-14
-0.1148490E+01 -0.1975877E-14
-0.1147980E+01 -0.2014625E-14
-0.1147470E+01 -0.2054123E-14
-0.1146960E+01 -0.2094384E-14
-0.1146450E+01 -0.2135424E-14
-0.1145940E+01 -0.2177256E-14
-0.1145430E+01 -0.2219896E-14
-0.1144920E+01 -0.2263359E-14
-0.1144410E+01 -0.2307662E-14
-0.1143900E+01 -0.2352819E-14
-0.1143390E+01 -0.2398847E-14
-0.1142880E+01 -0.2445762E-14
-0.1142370E+01 -0.2493582E-14
-0.1141860E+01 -0.2542323E-14
-0.1141350E+01 -0.2592004E-14
-0.1140840E+01 -0.2642641E-14
-0.1140330E+01 -0.2694253E-14
-0.1139820E+01 -0.2746858E-14
-0.1139310E+01 -0.2800476E-14
-0.1138800E+01 -0.2855125E-14
-0.1138290E+01 -0.2910825E-14
-0.1137780E+01 -0.2967596E-14
-0.1137270E+01 -0.3025459E-14
-0.1136760E+01 -0.3084433E-14
-0.1136250E+01 -0.3144540E-14
-0.1135740E+01 -0.3205802E-14
-0.1135230E+01 -0.3268240E-14
-0.1134720E+01 -0.3331877E-14
-0.1134210E+01 -0.3396735E-14
-0.1133700E+01 -0.3462837E-14
-0.1133190E+01 -0.3530208E-14
-0.1132680E+01 -0.3598870E-14
-0.1132170E+01 -0.3668849E-14
-0.1131660E+01 -0.3740168E-14
-0.1131150E+01 -0.3812854E-14
-0.1130640E+01 -0.3886933E-14
-0.1130130E+01 -0.3962429E-14
-0.1129620E+01 -0.4039371E-14
-0.1129110E+01 -0.4117784E-14
-0.1128600E+01 -0.4197698E-14
-0.1128090E+01 -0.4279139E-14
-0.1127580E+01 -0.4362138E-14
-0.1127070E+01 -0.4446723E-14
-0.1126560E+01 -0.4532923E-14
-0.1126050E+01 -0.4620771E-14
-0.1125540E+01 -0.4710295E-14
-0.1125030E+01 -0.4801529E-14
-0.1124520E+01 -0.4894504E-14
-0.1124010E+01 -0.4989253E-14
-0.1123500E+01 -0.5085809E-14
-0.1122990E+01 -0.5184207E-14
-0.1122480E+01 -0.5284481E-14
-0.1121970E+01 -0.5386665E-14
-0.1121460E+01 -0.5490797E-14
-0.1120950E+01 -0.5596913E-14
-0.1120440E+01 -0.5705050E-14
-0.1119930E+01 -0.5815245E-14
-0.1119420E+01 -0.5927538E-14
-0.1118910E+01 -0.6041968E-14
-0.1118400E+01 -0.6158574E-14
-0.1117890E+01 -0.6277398E-14
-0.1117380E+01 -0.6398481E-14
-0.1116870E+01 -0.6521865E-14
-0.1116360E+01 -0.6647593E-14
-0.1115850E+01 -0.6775709E-14
-0.1115340E+01 -0.6906257E-14
-0.1114830E+01 -0.7039284E-14
-0.1114320E+01 -0.7174835E-14
-0.1113810E+01 -0.7312957E-14
-0.1113300E+01 -0.7453699E-14
-0.1112790E+01 -0.7597110E-14
-0.1112280E+01 -0.7743238E-14
-0.1111770E+01 -0.7892135E-14
-0.1111260E+01 -0.8043853E-14
-0.1110750E+01 -0.8198445E-14
-0.1110240E+01 -0.8355963E-14
-0.1109730E+01 -0.8516463E-14
-0.1109220E+01 -0.8680000E-14
-0.1108710E+01 -0.8846631E-14
-0.1108200E+01 -0.9016412E-14
-0.1107690E+01 -0.9189405E-14
-0.1107180E+01 -0.9365666E-14
-0.1106670E+01 -0.9545259E-14
-0.1106160E+01 -0.9728245E-14
-0.1105650E+01 -0.9914686E-14
-0.1105140E+01 -0.1010465E-13
-0.1104630E+01 -0.1029819E-13
-0.1104120E+01 -0.1049539E-13
-0.1103610E+01 -0.1069631E-13
-0.1103100E+01 -0.1090102E-13
-0.1102590E+01 -0.1110958E-13
-0.1102080E+01 -0.1132208E-13
-0.1101570E+01 -0.1153858E-13
-0.1101060E+01 -0.1175915E-13
-0.1100550E+01 -0.1198388E-13
-0.1100040E+01 -0.1221284E-13
-0.1099530E+01 -0.1244611E-13
-0.1099020E+01 -0.1268377E-13
-0.1098510E+01 -0.1292590E-13
-0.1098000E+01 -0.1317257E-13
-0.1097490E+01 -0.1342389E-13
-0.1096980E+01 -0.1367993E-13
-0.1096470E+01 -0.1394078E-13
-0.1095960E+01 -0.1420652E-13
-0.1095450E+01 -0.1447726E-13
-0.1094940E+01 -0.1475308E-13
-0.1094430E+01 -0.1503407E-13
-0.1093920E+01 -0.1532034E-13
-0.1093410E+01 -0.1561198E-13
-0.1092900E+01 -0.1590908E-13
-0.1092390E+01 -0.1621175E-13
-0.1091880E+01 -0.1652009E-13
-0.1091370E+01 -0.1683421E-13
-0.1090860E+01 -0.1715421E-13
-0.1090350E+01 -0.1748020E-13
-0.1089840E+01 -0.1781229E-13
-0.1089330E+01 -0.1815060E-13
-0.1088820E+01 -0.1849523E-13
-0.1088310E+01 -0.1884630E-13
-0.1087800E+01 -0.1920394E-13
-0.1087290E+01 -0.1956826E-13
-0.1086780E+01 -0.1993939E-13
-0.1086270E+01 -0.2031745E-13
-0.1085760E+01 -0.2070256E-13
-0.1085250E+01 -0.2109487E-13
-0.1084740E+01 -0.2149450E-13
-0.1084230E+01 -0.2190158E-13
-0.1083720E+01 -0.2231625E-13
-0.1083210E+01 -0.2273866E-13
-0.1082700E+01 -0.2316893E-13
-0.1082190E+01 -0.2360723E-13
-0.1081680E+01 -0.2405369E-13
-0.1081170E+01 -0.2450847E-13
-0.1080660E+01 -0.2497172E-13
-0.1080150E+01 -0.2544358E-13
-0.1079640E+01 -0.2592423E-13
-0.1079130E+01 -0.2641381E-13
-0.1078620E+01 -0.2691250E-13
-0.1078110E+01 -0.2742046E-13
-0.1077600E+01 -0.2793786E-13
-0.1077090E+01 -0.2846487E-13
-0.1076580E+01 -0.2900166E-13
-0.1076070E+01 -0.2954843E-13
-0.1075560E+01 -0.3010534E-13
-0.1075050E+01 -0.3067258E-13
-0.1074540E+01 -0.3125035E-13
-0.1074030E+01 -0.3183883E-13
-0.1073520E+01 -0.3243823E-13
-0.1073010E+01 -0.3304873E-13
-0.1072500E+01 -0.3367055E-13
-0.1071990E+01 -0.3430389E-13
-0.1071480E+01 -0.3494895E-13
-0.1070970E+01 -0.3560595E-13
-0.1070460E+01 -0.3627512E-13
-0.1069950E+01 -0.3695667E-13
-0.1069440E+01 -0.3765082E-13
-0.1068930E+01 -0.3835781E-13
-0.1068420E+01 -0.3907787E-13
-0.1067910E+01 -0.3981124E-13
-0.1067400E+01 -0.4055815E-13
-0.1066890E+01 -0.4131886E-13
-0.1066380E+01 -0.4209361E-13
-0.1065870E+01 -0.4288266E-13
-0.1065360E+01 -0.4368628E-13
-0.1064850E+01 -0.4450471E-13
-0.1064340E+01 -0.4533824E-13
-0.1063830E+01 -0.4618714E-13
-0.1063320E+01 -0.4705168E-13
-0.1062810E+01 -0.4793215E-13
-0.1062300E+01 -0.4882883E-13
-0.1061790E+01 -0.4974203E-13
-0.1061280E+01 -0.5067205E-13
-0.1060770E+01 -0.5161917E-13
-0.1060260E+01 -0.5258372E-13
-0.1059750E+01 -0.5356602E-13
-0.1059240E+01 -0.5456637E-13
-0.1058730E+01 -0.5558512E-13
-0.1058220E+01 -0.5662258E-13
-0.1057710E+01 -0.5767910E-13
-0.1057200E+01 -0.5875503E-13
-0.1056690E+01 -0.5985071E-13
-0.1056180E+01 -0.6096650E-13
-0.1055670E+01 -0.6210277E-13
-0.1055160E+01 -0.6325988E-13
-0.1054650E+01 -0.6443821E-13
-0.1054140E+01 -0.6563814E-13
-0.1053630E+01 -0.6686006E-13
-0.1053120E+01 -0.6810438E-13
-0.1052610E+01 -0.6937148E-13
-0.1052100E+01 -0.7066178E-13
-0.1051590E+01 -0.7197570E-13
-0.1051080E+01 -0.7331367E-13
-0.1050570E+01 -0.7467611E-13
-0.1050060E+01 -0.7606347E-13
-0.1049550E+01 -0.7747619E-13
-0.1049040E+01 -0.7891474E-13
-0.1048530E+01 -0.8037956E-13
-0.1048020E+01 -0.8187115E-13
-0.1047510E+01 -0.8338997E-13
-0.1047000E+01 -0.8493651E-13
-0.1046490E+01 -0.8651128E-13
-0.1045980E+01 -0.8811478E-13
-0.1045470E+01 -0.8974753E-13
-0.1044960E+01 -0.9141005E-13
-0.1044450E+01 -0.9310287E-13
-0.1043940E+01 -0.9482654E-13
-0.1043430E+01 -0.9658161E-13
-0.1042920E+01 -0.9836865E-13
-0.1042410E+01 -0.1001882E-12
-0.1041900E+01 -0.1020409E-12
-0.1041390E+01 -0.1039273E-12
-0.1040880E+01 -0.1058480E-12
-0.1040370E+01 -0.1078037E-12
-0.1039860E+01 -0.1097949E-12
-0.1039350E+01 -0.1118223E-12
-0.1038840E+01 -0.1138865E-12
-0.1038330E+01 -0.1159882E-12
-0.1037820E+01 -0.1181281E-12
-0.1037310E+01 -0.1203068E-12
-0.1036800E+01 -0.1225251E-12
-0.1036290E+01 -0.1247835E-12
-0.1035780E+01 -0.1270830E-12
-0.1035270E+01 -0.1294241E-12
-0.1034760E+01 -0.1318077E-12
-0.1034250E+01 -0.1342344E-12
-0.1033740E+01 -0.1367051E-12
-0.1033230E+01 -0.1392206E-12
-0.1032720E+01 -0.1417816E-12
-0.1032210E+01 -0.1443889E-12
-0.1031700E+01 -0.1470434E-12
-0.1031190E+01 -0.1497459E-12
-0.1030680E+01 -0.1524973E-12
-0.1030170E+01 -0.1552984E-12
-0.1029660E+01 -0.1581501E-12
-0.1029150E+01 -0.1610533E-12
-0.1028640E+01 -0.1640090E-12
-0.1028130E+01 -0.1670180E-12
-0.1027620E+01 -0.1700814E-12
-0.1027110E+01 -0.1732000E-12
-0.1026600E+01 -0.1763748E-12
-0.1026090E+01 -0.1796069E-12
-0.1025580E+01 -0.1828973E-12
-0.1025070E+01 -0.1862469E-12
-0.1024560E+01 -0.1896569E-12
-0.1024050E+01 -0.1931284E-12
-0.1023540E+01 -0.1966623E-12
-0.1023030E+01 -0.2002598E-12
-0.1022520E+01 -0.2039220E-12
-0.1022010E+01 -0.2076501E-12
-0.1021500E+01 -0.2114453E-12
-0.1020990E+01 -0.2153086E-12
-0.1020480E+01 -0.2192415E-12
-0.1019970E+01 -0.2232449E-12
-0.1019460E+01 -0.2273203E-12
-0.1018950E+01 -0.2314688E-12
-0.1018440E+01 -0.2356918E-12
-0.1017930E+01 -0.2399905E-12
-0.1017420E+01 -0.2443664E-12
-0.1016910E+01 -0.2488208E-12
-0.1016400E+01 -0.2533550E-12
-0.1015890E+01 -0.2579705E-12
-0.1015380E+01 -0.2626686E-12
-0.1014870E+01 -0.2674509E-12
-0.1014360E+01 -0.2723188E-12
-0.1013850E+01 -0.2772739E-12
-0.1013340E+01 -0.2823177E-12
-0.1012830E+01 -0.2874516E-12
-0.1012320E+01 -0.2926774E-12
-0.1011810E+01 -0.2979966E-12
-0.1011300E+01 -0.3034109E-12
-0.1010790E+01 -0.3089219E-12
-0.1010280E+01 -0.3145313E-12
-0.1009770E+01 -0.3202408E-12
-0.1009260E+01 -0.3260523E-12
-0.1008750E+01 -0.3319675E-12
-0.1008240E+01 -0.3379882E-12
-0.1007730E+01 -0.3441163E-12
-0.1007220E+01 -0.3503537E-12
-0.1006710E+01 -0.3567022E-12
-0.1006200E+01 -0.3631639E-12
-0.1005690E+01 -0.3697406E-12
-0.1005180E+01 -0.3764345E-12
-0.1004670E+01 -0.3832475E-12
-0.1004160E+01 -0.3901818E-12
-0.1003650E+01 -0.3972394E-12
-0.1003140E+01 -0.4044226E-12
-0.1002630E+01 -0.4117335E-12
-0.1002120E+01 -0.4191743E-12
-0.1001610E+01 -0.4267473E-12
-0.1001100E+01 -0.4344549E-12
-0.1000590E+01 -0.4422992E-12
-0.1000080E+01 -0.4502829E-12
-0.9995700E+00 -0.4584082E-12
-0.9990600E+00 -0.4666776E-12
-0.9985500E+00 -0.4750937E-12
-0.9980400E+00 -0.4836590E-12
-0.9975300E+00 -0.4923762E-12
-0.9970200E+00 -0.5012478E-12
-0.9965100E+00 -0.5102765E-12
-0.9960000E+00 -0.5194651E-12
-0.9954900E+00 -0.5288164E-12
-0.9949800E+00 -0.5383332E-12
-0.9944700E+00 -0.5480184E-12
-0.9939600E+00 -0.5578749E-12
-0.9934500E+00 -0.5679056E-12
-0.9929400E+00 -0.5781136E-12
-0.9924300E+00 -0.5885020E-12
-0.9919200E+00 -0.5990739E-12
-0.9914100E+00 -0.6098325E-12
-0.9909000E+00 -0.6207810E-12
-0.9903900E+00 -0.6319227E-12
-0.9898800E+00 -0.6432609E-12
-0.9893700E+00 -0.6547991E-12
-0.9888600E+00 -0.6665408E-12
-0.9883500E+00 -0.6784893E-12
-0.9878400E+00 -0.6906484E-12
-0.9873300E+00 -0.7030217E-12
-0.9868200E+00 -0.7156129E-12
-0.9863100E+00 -0.7284257E-12
-0.9858000E+00 -0.7414640E-12
-0.9852900E+00 -0.7547316E-12
-0.9847800E+00 -0.7682326E-12
-0.9842700E+00 -0.7819710E-12
-0.9837600E+00 -0.7959508E-12
-0.9832500E+00 -0.8101763E-12
-0.9827400E+00 -0.8246516E-12
-0.9822300E+00 -0.8393811E-12
-0.9817200E+00 -0.8543693E-12
-0.9812100E+00 -0.8696204E-12
-0.9807000E+00 -0.8851391E-12
-0.9801900E+00 -0.9009299E-12
-0.9796800E+00 -0.9169976E-12
-0.9791700E+00 -0.9333469E-12
-0.9786600E+00 -0.9499827E-12
-0.9781500E+00 -0.9669099E-12
-0.9776400E+00 -0.9841335E-12
-0.9771300E+00 -0.1001659E-11
-0.9766200E+00 -0.1019490E-11
-0.9761100E+00 -0.1037634E-11
-0.9756000E+00 -0.1056095E-11
-0.9750900E+00 -0.1074879E-11
-0.9745800E+00 -0.1093991E-11
-0.9740700E+00 -0.1113437E-11
-0.9735600E+00 -0.1133222E-11
-0.9730500E+00 -0.1153353E-11
-0.9725400E+00 -0.1173836E-11
-0.9720300E+00 -0.1194676E-11
-0.9715200E+00 -0.1215880E-11
-0.9710100E+00 -0.1237453E-11
-0.9705000E+00 -0.1259402E-11
-0.9699900E+00 -0.1281734E-11
-0.9694800E+00 -0.1304455E-11
-0.9689700E+00 -0.1327572E-11
-0.9684600E+00 -0.1351091E-11
-0.9679500E+00 -0.1375020E-11
-0.9674400E+00 -0.1399365E-11
-0.9669300E+00 -0.1424133E-11
-0.9664200E+00 -0.1449332E-11
-0.9659100E+00 -0.1474969E-11
-0.9654000E+00 -0.1501052E-11
-0.9648900E+00 -0.1527588E-11
-0.9643800E+00 -0.1554584E-11
-0.9638700E+00 -0.1582049E-11
-0.9633600E+00 -0.1609991E-11
-0.9628500E+00 -0.1638418E-11
-0.9623400E+00 -0.1667338E-11
-0.9618300E+00 -0.1696759E-11
-0.9613200E+00 -0.1726691E-11
-0.9608100E+00 -0.1757141E-11
-0.9603000E+00 -0.1788118E-11
-0.9597900E+00 -0.1819632E-11
-0.9592800E+00 -0.1851692E-11
-0.9587700E+00 -0.1884307E-11
-0.9582600E+00 -0.1917485E-11
-0.9577500E+00 -0.1951238E-11
-0.9572400E+00 -0.1985574E-11
-0.9567300E+00 -0.2020504E-11
-0.9562200E+00 -0.2056038E-11
-0.9557100E+00 -0.2092185E-11
-0.9552000E+00 -0.2128956E-11
-0.9546900E+00 -0.2166363E-11
-0.9541800E+00 -0.2204414E-11
-0.9536700E+00 -0.2243123E-11
-0.9531600E+00 -0.2282498E-11
-0.9526500E+00 -0.2322553E-11
-0.9521400E+00 -0.2363298E-11
-0.9516300E+00 -0.2404745E-11
-0.9511200E+00 -0.2446906E-11
-0.9506100E+00 -0.2489793E-11
-0.9501000E+00 -0.2533418E-11
-0.9495900E+00 -0.2577794E-11
-0.9490800E+00 -0.2622933E-11
-0.9485700E+00 -0.2668848E-11
-0.9480600E+00 -0.2715553E-11
-0.9475500E+00 -0.2763061E-11
-0.9470400E+00 -0.2811385E-11
-0.9465300E+00 -0.2860538E-11
-0.9460200E+00 -0.2910536E-11
-0.9455100E+00 -0.2961392E-11
-0.9450000E+00 -0.3013121E-11
-0.9444900E+00 -0.3065736E-11
-0.9439800E+00 -0.3119255E-11
-0.9434700E+00 -0.3173690E-11
-0.9429600E+00 -0.3229059E-11
-0.9424500E+00 -0.3285376E-11
-0.9419400E+00 -0.3342658E-11
-0.9414300E+00 -0.3400920E-11
-0.9409200E+00 -0.3460179E-11
-0.9404100E+00 -0.3520453E-11
-0.9399000E+00 -0.3581757E-11
-0.9393900E+00 -0.3644109E-11
-0.9388800E+00 -0.3707527E-11
-0.9383700E+00 -0.3772029E-11
-0.9378600E+00 -0.3837632E-11
-0.9373500E+00 -0.3904356E-11
-0.9368400E+00 -0.3972218E-11
-0.9363300E+00 -0.4041239E-11
-0.9358200E+00 -0.4111437E-11
-0.9353100E+00 -0.4182832E-11
-0.9348000E+00 -0.4255445E-11
-0.9342900E+00 -0.4329294E-11
-0.9337800E+00 -0.4404402E-11
-0.9332700E+00 -0.4480789E-11
-0.9327600E+00 -0.4558477E-11
-0.9322500E+00 -0.4637487E-11
-0.9317400E+00 -0.4717842E-11
-0.9312300E+00 -0.4799564E-11
-0.9307200E+00 -0.4882675E-11
-0.9302100E+00 -0.4967199E-11
-0.9297000E+00 -0.5053159E-11
-0.9291900E+00 -0.5140580E-11
-0.9286800E+00 -0.5229485E-11
-0.9281700E+00 -0.5319900E-11
-0.9276600E+00 -0.5411849E-11
-0.9271500E+00 -0.5505359E-11
-0.9266400E+00 -0.5600454E-11
-0.9261300E+00 -0.5697162E-11
-0.9256200E+00 -0.5795509E-11
-0.9251100E+00 -0.5895522E-11
-0.9246000E+00 -0.5997229E-11
-0.9240900E+00 -0.6100659E-11
-0.9235800E+00 -0.6205839E-11
-0.9230700E+00 -0.6312799E-11
-0.9225600E+00 -0.6421568E-11
-0.9220500E+00 -0.6532177E-11
-0.9215400E+00 -0.6644655E-11
-0.9210300E+00 -0.6759035E-11
-0.9205200E+00 -0.6875347E-11
-0.9200100E+00 -0.6993623E-11
-0.9195000E+00 -0.7113896E-11
-0.9189900E+00 -0.7236199E-11
-0.9184800E+00 -0.7360566E-11
-0.9179700E+00 -0.7487031E-11
-0.9174600E+00 -0.7615628E-11
-0.9169500E+00 -0.7746392E-11
-0.9164400E+00 -0.7879360E-11
-0.9159300E+00 -0.8014568E-11
-0.9154200E+00 -0.8152053E-11
-0.9149100E+00 -0.8291852E-11
-0.9144000E+00 -0.8434003E-11
-0.9138900E+00 -0.8578545E-11
-0.9133800E+00 -0.8725519E-11
-0.9128700E+00 -0.8874962E-11
-0.9123600E+00 -0.9026918E-11
-0.9118500E+00 -0.9181427E-11
-0.9113400E+00 -0.9338532E-11
-0.9108300E+00 -0.9498274E-11
-0.9103200E+00 -0.9660697E-11
-0.9098100E+00 -0.9825846E-11
-0.9093000E+00 -0.9993765E-11
-0.9087900E+00 -0.1016450E-10
-0.9082800E+00 -0.1033810E-10
-0.9077700E+00 -0.1051460E-10
-0.9072600E+00 -0.1069407E-10
-0.9067500E+00 -0.1087654E-10
-0.9062400E+00 -0.1106206E-10
-0.9057300E+00 -0.1125069E-10
-0.9052200E+00 -0.1144247E-10
-0.9047100E+00 -0.1163746E-10
-0.9042000E+00 -0.1183571E-10
-0.9036900E+00 -0.1203727E-10
-0.9031800E+00 -0.1224220E-10
-0.9026700E+00 -0.1245055E-10
-0.9021600E+00 -0.1266238E-10
-0.9016500E+00 -0.1287775E-10
-0.9011400E+00 -0.1309671E-10
-0.9006300E+00 -0.1331932E-10
-0.9001200E+00 -0.1354565E-10
-0.8996100E+00 -0.1377575E-10
-0.8991000E+00 -0.1400968E-10
-0.8985900E+00 -0.1424750E-10
-0.8980800E+00 -0.1448929E-10
-0.8975700E+00 -0.1473511E-10
-0.8970600E+00 -0.1498501E-10
-0.8965500E+00 -0.1523907E-10
-0.8960400E+00 -0.1549736E-10
-0.8955300E+00 -0.1575994E-10
-0.8950200E+00 -0.1602688E-10
-0.8945100E+00 -0.1629826E-10
-0.8940000E+00 -0.1657414E-10
-0.8934900E+00 -0.1685461E-10
-0.8929800E+00 -0.1713973E-10
-0.8924700E+00 -0.1742958E-10
-0.8919600E+00 -0.1772424E-10
-0.8914500E+00 -0.1802379E-10
-0.8909400E+00 -0.1832829E-10
-0.8904300E+00 -0.1863785E-10
-0.8899200E+00 -0.1895253E-10
-0.8894100E+00 -0.1927242E-10
-0.8889000E+00 -0.1959761E-10
-0.8883900E+00 -0.1992818E-10
-0.8878800E+00 -0.2026422E-10
-0.8873700E+00 -0.2060582E-10
-0.8868600E+00 -0.2095306E-10
-0.8863500E+00 -0.2130604E-10
-0.8858400E+00 -0.2166485E-10
-0.8853300E+00 -0.2202959E-10
-0.8848200E+00 -0.2240035E-10
-0.8843100E+00 -0.2277723E-10
-0.8838000E+00 -0.2316032E-10
-0.8832900E+00 -0.2354973E-10
-0.8827800E+00 -0.2394556E-10
-0.8822700E+00 -0.2434791E-10
-0.8817600E+00 -0.2475690E-10
-0.8812500E+00 -0.2517262E-10
-0.8807400E+00 -0.2559518E-10
-0.8802300E+00 -0.2602470E-10
-0.8797200E+00 -0.2646128E-10
-0.8792100E+00 -0.2690505E-10
-0.8787000E+00 -0.2735611E-10
-0.8781900E+00 -0.2781459E-10
-0.8776800E+00 -0.2828060E-10
-0.8771700E+00 -0.2875427E-10
-0.8766600E+00 -0.2923572E-10
-0.8761500E+00 -0.2972507E-10
-0.8756400E+00 -0.3022245E-10
-0.8751300E+00 -0.3072798E-10
-0.8746200E+00 -0.3124181E-10
-0.8741100E+00 -0.3176406E-10
-0.8736000E+00 -0.3229487E-10
-0.8730900E+00 -0.3283438E-10
-0.8725800E+00 -0.3338272E-10
-0.8720700E+00 -0.3394003E-10
-0.8715600E+00 -0.3450647E-10
-0.8710500E+00 -0.3508217E-10
-0.8705400E+00 -0.3566729E-10
-0.8700300E+00 -0.3626197E-10
-0.8695200E+00 -0.3686638E-10
-0.8690100E+00 -0.3748066E-10
-0.8685000E+00 -0.3810497E-10
-0.8679900E+00 -0.3873947E-10
-0.8674800E+00 -0.3938433E-10
-0.8669700E+00 -0.4003971E-10
-0.8664600E+00 -0.4070578E-10
-0.8659500E+00 -0.4138271E-10
-0.8654400E+00 -0.4207068E-10
-0.8649300E+00 -0.4276985E-10
-0.8644200E+00 -0.4348041E-10
-0.8639100E+00 -0.4420253E-10
-0.8634000E+00 -0.4493642E-10
-0.8628900E+00 -0.4568224E-10
-0.8623800E+00 -0.4644019E-10
-0.8618700E+00 -0.4721047E-10
-0.8613600E+00 -0.4799327E-10
-0.8608500E+00 -0.4878879E-10
-0.8603400E+00 -0.4959723E-10
-0.8598300E+00 -0.5041880E-10
-0.8593200E+00 -0.5125371E-10
-0.8588100E+00 -0.5210216E-10
-0.8583000E+00 -0.5296438E-10
-0.8577900E+00 -0.5384057E-10
-0.8572800E+00 -0.5473098E-10
-0.8567700E+00 -0.5563581E-10
-0.8562600E+00 -0.5655530E-10
-0.8557500E+00 -0.5748968E-10
-0.8552400E+00 -0.5843919E-10
-0.8547300E+00 -0.5940407E-10
-0.8542200E+00 -0.6038454E-10
-0.8537100E+00 -0.6138089E-10
-0.8532000E+00 -0.6239333E-10
-0.8526900E+00 -0.6342214E-10
-0.8521800E+00 -0.6446757E-10
-0.8516700E+00 -0.6552988E-10
-0.8511600E+00 -0.6660934E-10
-0.8506500E+00 -0.6770622E-10
-0.8501400E+00 -0.6882079E-10
-0.8496300E+00 -0.6995333E-10
-0.8491200E+00 -0.7110414E-10
-0.8486100E+00 -0.7227350E-10
-0.8481000E+00 -0.7346170E-10
-0.8475900E+00 -0.7466903E-10
-0.8470800E+00 -0.7589580E-10
-0.8465700E+00 -0.7714231E-10
-0.8460600E+00 -0.7840888E-10
-0.8455500E+00 -0.7969581E-10
-0.8450400E+00 -0.8100344E-10
-0.8445300E+00 -0.8233209E-10
-0.8440200E+00 -0.8368208E-10
-0.8435100E+00 -0.8505376E-10
-0.8430000E+00 -0.8644747E-10
-0.8424900E+00 -0.8786354E-10
-0.8419800E+00 -0.8930233E-10
-0.8414700E+00 -0.9076419E-10
-0.8409600E+00 -0.9224950E-10
-0.8404500E+00 -0.9375861E-10
-0.8399400E+00 -0.9529191E-10
-0.8394300E+00 -0.9684976E-10
-0.8389200E+00 -0.9843257E-10
-0.8384100E+00 -0.1000407E-09
-0.8379000E+00 -0.1016746E-09
-0.8373900E+00 -0.1033346E-09
-0.8368800E+00 -0.1050211E-09
-0.8363700E+00 -0.1067346E-09
-0.8358600E+00 -0.1084755E-09
-0.8353500E+00 -0.1102442E-09
-0.8348400E+00 -0.1120411E-09
-0.8343300E+00 -0.1138667E-09
-0.8338200E+00 -0.1157214E-09
-0.8333100E+00 -0.1176057E-09
-0.8328000E+00 -0.1195201E-09
-0.8322900E+00 -0.1214650E-09
-0.8317800E+00 -0.1234408E-09
-0.8312700E+00 -0.1254482E-09
-0.8307600E+00 -0.1274875E-09
-0.8302500E+00 -0.1295592E-09
-0.8297400E+00 -0.1316639E-09
-0.8292300E+00 -0.1338021E-09
-0.8287200E+00 -0.1359743E-09
-0.8282100E+00 -0.1381810E-09
-0.8277000E+00 -0.1404228E-09
-0.8271900E+00 -0.1427002E-09
-0.8266800E+00 -0.1450138E-09
-0.8261700E+00 -0.1473641E-09
-0.8256600E+00 -0.1497516E-09
-0.8251500E+00 -0.1521771E-09
-0.8246400E+00 -0.1546410E-09
-0.8241300E+00 -0.1571440E-09
-0.8236200E+00 -0.1596866E-09
-0.8231100E+00 -0.1622695E-09
-0.8226000E+00 -0.1648933E-09
-0.8220900E+00 -0.1675586E-09
-0.8215800E+00 -0.1702661E-09
-0.8210700E+00 -0.1730164E-09
-0.8205600E+00 -0.1758102E-09
-0.8200500E+00 -0.1786482E-09
-0.8195400E+00 -0.1815310E-09
-0.8190300E+00 -0.1844594E-09
-0.8185200E+00 -0.1874340E-09
-0.8180100E+00 -0.1904556E-09
-0.8175000E+00 -0.1935248E-09
-0.8169900E+00 -0.1966425E-09
-0.8164800E+00 -0.1998093E-09
-0.8159700E+00 -0.2030260E-09
-0.8154600E+00 -0.2062934E-09
-0.8149500E+00 -0.2096123E-09
-0.8144400E+00 -0.2129834E-09
-0.8139300E+00 -0.2164076E-09
-0.8134200E+00 -0.2198857E-09
-0.8129100E+00 -0.2234184E-09
-0.8124000E+00 -0.2270067E-09
-0.8118900E+00 -0.2306515E-09
-0.8113800E+00 -0.2343534E-09
-0.8108700E+00 -0.2381135E-09
-0.8103600E+00 -0.2419327E-09
-0.8098500E+00 -0.2458118E-09
-0.8093400E+00 -0.2497517E-09
-0.8088300E+00 -0.2537535E-09
-0.8083200E+00 -0.2578180E-09
-0.8078100E+00 -0.2619462E-09
-0.8073000E+00 -0.2661391E-09
-0.8067900E+00 -0.2703976E-09
-0.8062800E+00 -0.2747229E-09
-0.8057700E+00 -0.2791158E-09
-0.8052600E+00 -0.2835775E-09
-0.8047500E+00 -0.2881089E-09
-0.8042400E+00 -0.2927112E-09
-0.8037300E+00 -0.2973854E-09
-0.8032200E+00 -0.3021327E-09
-0.8027100E+00 -0.3069541E-09
-0.8022000E+00 -0.3118508E-09
-0.8016900E+00 -0.3168239E-09
-0.8011800E+00 -0.3218746E-09
-0.8006700E+00 -0.3270041E-09
-0.8001600E+00 -0.3322135E-09
-0.7996500E+00 -0.3375042E-09
-0.7991400E+00 -0.3428772E-09
-0.7986300E+00 -0.3483339E-09
-0.7981200E+00 -0.3538756E-09
-0.7976100E+00 -0.3595035E-09
-0.7971000E+00 -0.3652190E-09
-0.7965900E+00 -0.3710234E-09
-0.7960800E+00 -0.3769179E-09
-0.7955700E+00 -0.3829042E-09
-0.7950600E+00 -0.3889833E-09
-0.7945500E+00 -0.3951570E-09
-0.7940400E+00 -0.4014264E-09
-0.7935300E+00 -0.4077931E-09
-0.7930200E+00 -0.4142586E-09
-0.7925100E+00 -0.4208243E-09
-0.7920000E+00 -0.4274919E-09
-0.7914900E+00 -0.4342627E-09
-0.7909800E+00 -0.4411384E-09
-0.7904700E+00 -0.4481206E-09
-0.7899600E+00 -0.4552108E-09
-0.7894500E+00 -0.4624108E-09
-0.7889400E+00 -0.4697221E-09
-0.7884300E+00 -0.4771464E-09
-0.7879200E+00 -0.4846856E-09
-0.7874100E+00 -0.4923412E-09
-0.7869000E+00 -0.5001150E-09
-0.7863900E+00 -0.5080089E-09
-0.7858800E+00 -0.5160247E-09
-0.7853700E+00 -0.5241641E-09
-0.7848600E+00 -0.5324290E-09
-0.7843500E+00 -0.5408214E-09
-0.7838400E+00 -0.5493432E-09
-0.7833300E+00 -0.5579962E-09
-0.7828200E+00 -0.5667825E-09
-0.7823100E+00 -0.5757041E-09
-0.7818000E+00 -0.5847630E-09
-0.7812900E+00 -0.5939613E-09
-0.7807800E+00 -0.6033011E-09
-0.7802700E+00 -0.6127845E-09
-0.7797600E+00 -0.6224136E-09
-0.7792500E+00 -0.6321907E-09
-0.7787400E+00 -0.6421179E-09
-0.7782300E+00 -0.6521975E-09
-0.7777200E+00 -0.6624318E-09
-0.7772100E+00 -0.6728230E-09
-0.7767000E+00 -0.6833736E-09
-0.7761900E+00 -0.6940860E-09
-0.7756800E+00 -0.7049624E-09
-0.7751700E+00 -0.7160055E-09
-0.7746600E+00 -0.7272176E-09
-0.7741500E+00 -0.7386014E-09
-0.7736400E+00 -0.7501594E-09
-0.7731300E+00 -0.7618942E-09
-0.7726200E+00 -0.7738084E-09
-0.7721100E+00 -0.7859047E-09
-0.7716000E+00 -0.7981859E-09
-0.7710900E+00 -0.8106547E-09
-0.7705800E+00 -0.8233138E-09
-0.7700700E+00 -0.8361662E-09
-0.7695600E+00 -0.8492147E-09
-0.7690500E+00 -0.8624622E-09
-0.7685400E+00 -0.8759117E-09
-0.7680300E+00 -0.8895661E-09
-0.7675200E+00 -0.9034286E-09
-0.7670100E+00 -0.9175022E-09
-0.7665000E+00 -0.9317900E-09
-0.7659900E+00 -0.9462952E-09
-0.7654800E+00 -0.9610210E-09
-0.7649700E+00 -0.9759709E-09
-0.7644600E+00 -0.9911479E-09
-0.7639500E+00 -0.1006556E-08
-0.7634400E+00 -0.1022197E-08
-0.7629300E+00 -0.1038077E-08
-0.7624200E+00 -0.1054197E-08
-0.7619100E+00 -0.1070562E-08
-0.7614000E+00 -0.1087175E-08
-0.7608900E+00 -0.1104040E-08
-0.7603800E+00 -0.1121160E-08
-0.7598700E+00 -0.1138540E-08
-0.7593600E+00 -0.1156183E-08
-0.7588500E+00 -0.1174094E-08
-0.7583400E+00 -0.1192275E-08
-0.7578300E+00 -0.1210732E-08
-0.7573200E+00 -0.1229467E-08
-0.7568100E+00 -0.1248486E-08
-0.7563000E+00 -0.1267792E-08
-0.7557900E+00 -0.1287390E-08
-0.7552800E+00 -0.1307284E-08
-0.7547700E+00 -0.1327478E-08
-0.7542600E+00 -0.1347977E-08
-0.7537500E+00 -0.1368785E-08
-0.7532400E+00 -0.1389907E-08
-0.7527300E+00 -0.1411347E-08
-0.7522200E+00 -0.1433110E-08
-0.7517100E+00 -0.1455201E-08
-0.7512000E+00 -0.1477625E-08
-0.7506900E+00 -0.1500386E-08
-0.7501800E+00 -0.1523490E-08
-0.7496700E+00 -0.1546941E-08
-0.7491600E+00 -0.1570744E-08
-0.7486500E+00 -0.1594906E-08
-0.7481400E+00 -0.1619430E-08
-0.7476300E+00 -0.1644323E-08
-0.7471200E+00 -0.1669590E-08
-0.7466100E+00 -0.1695235E-08
-0.7461000E+00 -0.1721266E-08
-0.7455900E+00 -0.1747686E-08
-0.7450800E+00 -0.1774503E-08
-0.7445700E+00 -0.1801722E-08
-0.7440600E+00 -0.1829348E-08
-0.7435500E+00 -0.1857388E-08
-0.7430400E+00 -0.1885848E-08
-0.7425300E+00 -0.1914733E-08
-0.7420200E+00 -0.1944051E-08
-0.7415100E+00 -0.1973807E-08
-0.7410000E+00 -0.2004008E-08
-0.7404900E+00 -0.2034660E-08
-0.7399800E+00 -0.2065769E-08
-0.7394700E+00 -0.2097343E-08
-0.7389600E+00 -0.2129389E-08
-0.7384500E+00 -0.2161912E-08
-0.7379400E+00 -0.2194920E-08
-0.7374300E+00 -0.2228420E-08
-0.7369200E+00 -0.2262419E-08
-0.7364100E+00 -0.2296925E-08
-0.7359000E+00 -0.2331944E-08
-0.7353900E+00 -0.2367485E-08
-0.7348800E+00 -0.2403554E-08
-0.7343700E+00 -0.2440160E-08
-0.7338600E+00 -0.2477310E-08
-0.7333500E+00 -0.2515012E-08
-0.7328400E+00 -0.2553275E-08
-0.7323300E+00 -0.2592105E-08
-0.7318200E+00 -0.2631512E-08
-0.7313100E+00 -0.2671504E-08
-0.7308000E+00 -0.2712089E-08
-0.7302900E+00 -0.2753276E-08
-0.7297800E+00 -0.2795073E-08
-0.7292700E+00 -0.2837490E-08
-0.7287600E+00 -0.2880535E-08
-0.7282500E+00 -0.2924217E-08
-0.7277400E+00 -0.2968546E-08
-0.7272300E+00 -0.3013530E-08
-0.7267200E+00 -0.3059180E-08
-0.7262100E+00 -0.3105504E-08
-0.7257000E+00 -0.3152513E-08
-0.7251900E+00 -0.3200217E-08
-0.7246800E+00 -0.3248624E-08
-0.7241700E+00 -0.3297747E-08
-0.7236600E+00 -0.3347594E-08
-0.7231500E+00 -0.3398176E-08
-0.7226400E+00 -0.3449504E-08
-0.7221300E+00 -0.3501589E-08
-0.7216200E+00 -0.3554441E-08
-0.7211100E+00 -0.3608072E-08
-0.7206000E+00 -0.3662492E-08
-0.7200900E+00 -0.3717713E-08
-0.7195800E+00 -0.3773747E-08
-0.7190700E+00 -0.3830604E-08
-0.7185600E+00 -0.3888298E-08
-0.7180500E+00 -0.3946839E-08
-0.7175400E+00 -0.4006241E-08
-0.7170300E+00 -0.4066514E-08
-0.7165200E+00 -0.4127673E-08
-0.7160100E+00 -0.4189729E-08
-0.7155000E+00 -0.4252695E-08
-0.7149900E+00 -0.4316584E-08
-0.7144800E+00 -0.4381409E-08
-0.7139700E+00 -0.4447184E-08
-0.7134600E+00 -0.4513922E-08
-0.7129500E+00 -0.4581637E-08
-0.7124400E+00 -0.4650342E-08
-0.7119300E+00 -0.4720053E-08
-0.7114200E+00 -0.4790782E-08
-0.7109100E+00 -0.4862546E-08
-0.7104000E+00 -0.4935358E-08
-0.7098900E+00 -0.5009233E-08
-0.7093800E+00 -0.5084187E-08
-0.7088700E+00 -0.5160234E-08
-0.7083600E+00 -0.5237391E-08
-0.7078500E+00 -0.5315674E-08
-0.7073400E+00 -0.5395097E-08
-0.7068300E+00 -0.5475678E-08
-0.7063200E+00 -0.5557433E-08
-0.7058100E+00 -0.5640377E-08
-0.7053000E+00 -0.5724530E-08
-0.7047900E+00 -0.5809906E-08
-0.7042800E+00 -0.5896525E-08
-0.7037700E+00 -0.5984402E-08
-0.7032600E+00 -0.6073556E-08
-0.7027500E+00 -0.6164006E-08
-0.7022400E+00 -0.6255768E-08
-0.7017300E+00 -0.6348863E-08
-0.7012200E+00 -0.6443308E-08
-0.7007100E+00 -0.6539123E-08
-0.7002000E+00 -0.6636327E-08
-0.6996900E+00 -0.6734940E-08
-0.6991800E+00 -0.6834981E-08
-0.6986700E+00 -0.6936471E-08
-0.6981600E+00 -0.7039430E-08
-0.6976500E+00 -0.7143880E-08
-0.6971400E+00 -0.7249840E-08
-0.6966300E+00 -0.7357332E-08
-0.6961200E+00 -0.7466378E-08
-0.6956100E+00 -0.7576999E-08
-0.6951000E+00 -0.7689219E-08
-0.6945900E+00 -0.7803059E-08
-0.6940800E+00 -0.7918541E-08
-0.6935700E+00 -0.8035690E-08
-0.6930600E+00 -0.8154529E-08
-0.6925500E+00 -0.8275079E-08
-0.6920400E+00 -0.8397367E-08
-0.6915300E+00 -0.8521416E-08
-0.6910200E+00 -0.8647252E-08
-0.6905100E+00 -0.8774898E-08