-0.1200000E+01  0.0000000E+00
-0.1199490E+01  0.0000000E+00
-0.1198980E+01  0.0000000E+00
-0.1198470E+01  0.0000000E+00
-0.1197960E+01  0.0000000E+00
-0.1197450E+01  0.0000000E+00
-0.1196940E+01  0.0000000E+00
-0.1196430E+01  0.0000000E+00
-0.1195920E+01  0.0000000E+00
-0.1195410E+01  0.0000000E+00
-0.1194900E+01  0.0000000E+00
-0.1194390E+01  0.0000000E+00
-0.1193880E+01  0.0000000E+00
-0.1193370E+01  0.0000000E+00
-0.1192860E+01  0.0000000E+00
-0.1192350E+01  0.0000000E+00
-0.1191840E+01  0.0000000E+00
-0.1191330E+01  0.0000000E+00
-0.1190820E+01  0.0000000E+00
-0.1190310E+01  0.0000000E+00
-0.1189800E+01  0.0000000E+00
-0.1189290E+01  0.0000000E+00
-0.1188780E+01  0.0000000E+00
-0.1188270E+01  0.0000000E+00
-0.1187760E+01  0.0000000E+00
-0.1187250E+01  0.0000000E+00
-0.1186740E+01  0.0000000E+00
-0.1186230E+01  0.0000000E+00
-0.1185720E+01  0.0000000E+00
-0.1185210E+01  0.0000000E+00
-0.1184700E+01  0.0000000E+00
-0.1184190E+01  0.0000000E+00
-0.1183680E+01  0.0000000E+00
-0.1183170E+01  0.0000000E+00
-0.1182660E+01  0.0000000E+00
-0.1182150E+01  0.0000000E+00
-0.1181640E+01  0.0000000E+00
-0.1181130E+01  0.0000000E+00
-0.1180620E+01  0.0000000E+00
-0.1180110E+01  0.0000000E+00
-0.1179600E+01  0.0000000E+00
-0.1179090E+01  0.0000000E+00
-0.1178580E+01  0.0000000E+00
-0.1178070E+01  0.0000000E+00
-0.1177560E+01  0.0000000E+00
-0.1177050E+01  0.0000000E+00
-0.1176540E+01  0.0000000E+00
-0.1176030E+01  0.0000000E+00
-0.1175520E+01  0.0000000E+00
-0.1175010E+01  0.0000000E+00
-0.1174500E+01  0.0000000E+00
-0.1173990E+01  0.0000000E+00
-0.1173480E+01  0.0000000E+00
-0.1172970E+01  0.0000000E+00
-0.1172460E+01  0.0000000E+00
-0.1171950E+01  0.0000000E+00
-0.1171440E+01  0.0000000E+00
-0.1170930E+01  0.0000000E+00
-0.1170420E+01  0.0000000E+00
-0.1169910E+01  0.0000000E+00
-0.1169400E+01  0.0000000E+00
-0.1168890E+01  0.0000000E+00
-0.1168380E+01  0.0000000E+00
-0.1167870E+01  0.0000000E+00
-0.1167360E+01  0.0000000E+00
-0.1166850E+01  0.0000000E+00
-0.1166340E+01  0.0000000E+00
-0.1165830E+01  0.0000000E+00
-0.1165320E+01  0.0000000E+00
-0.1164810E+01  0.0000000E+00
-0.1164300E+01  0.0000000E+00
-0.1163790E+01  0.0000000E+00
-0.1163280E+01  0.0000000E+00
-0.1162770E+01  0.0000000E+00
-0.1162260E+01  0.0000000E+00
-0.1161750E+01  0.0000000E+00
-0.1161240E+01  0.0000000E+00
-0.1160730E+01  0.0000000E+00
-0.1160220E+01  0.0000000E+00
-0.1159710E+01  0.0000000E+00
-0.1159200E+01  0.0000000E+00
-0.1158690E+01  0.0000000E+00
-0.1158180E+01  0.0000000E+00
-0.1157670E+01  0.0000000E+00
-0.1157160E+01  0.0000000E+00
-0.1156650E+01  0.0000000E+00
-0.1156140E+01  0.0000000E+00
-0.1155630E+01  0.0000000E+00
-0.1155120E+01  0.0000000E+00
-0.1154610E+01  0.0000000E+00
-0.1154100E+01  0.0000000E+00
-0.1153590E+01  0.0000000E+00
-0.1153080E+01  0.0000000E+00
-0.1152570E+01  0.0000000E+00
-0.1152060E+01  0.0000000E+00
-0.1151550E+01  0.0000000E+00
-0.1151040E+01  0.0000000E+00
-0.1150530E+01  0.0000000E+00
-0.1150020E+01  0.0000000E+00
-0.1149510E+01  0.0000000E+00
-0.1149000E+01  0.0000000E+00
-0.1148490E+01 -0.2158751E-37
-0.1147980E+01 -0.6647685E-37
-0.1147470E+01 -0.1533631E-36
-0.1146960E+01 -0.3019312E-36
-0.1146450E+01 -0.5423864E-36
-0.1145940E+01 -0.9083673E-36
-0.1145430E+01 -0.1443725E-35
-0.1144920E+01 -0.2198291E-35
-0.1144410E+01 -0.3229950E-35
-0.1143900E+01 -0.4597366E-35
-0.1143390E+01 -0.6340692E-35
-0.1142880E+01 -0.8469088E-35
-0.1142370E+01 -0.1092276E-34
-0.1141860E+01 -0.1352035E-34
-0.1141350E+01 -0.1588366E-34
-0.1140840E+01 -0.1733136E-34
-0.1140330E+01 -0.1673511E-34
-0.1139820E+01 -0.1233112E-34
-0.1139310E+01 -0.1482876E-35
-0.1138800E+01  0.1960552E-34
-0.1138290E+01  0.5621775E-34
-0.1137780E+01  0.1154751E-33
-0.1137270E+01  0.2066684E-33
-0.1136760E+01  0.3415044E-33
-0.1136250E+01  0.5341616E-33
-0.1135740E+01  0.8009989E-33
-0.1135230E+01  0.1159695E-32
-0.1134720E+01  0.1627516E-32
-0.1134210E+01  0.2218320E-32
-0.1133700E+01  0.2937787E-32
-0.1133190E+01  0.3776274E-32
-0.1132680E+01  0.4698576E-32
-0.1132170E+01  0.5629810E-32
-0.1131660E+01  0.6436615E-32
-0.1131150E+01  0.6902947E-32
-0.1130640E+01  0.6699958E-32
-0.1130130E+01  0.5349904E-32
-0.1129620E+01  0.2184758E-32
-0.1129110E+01 -0.3698663E-32
-0.1128600E+01 -0.1348360E-31
-0.1128090E+01 -0.2867251E-31
-0.1127580E+01 -0.5111185E-31
-0.1127070E+01 -0.8298966E-31
-0.1126560E+01 -0.1267888E-30
-0.1126050E+01 -0.1851726E-30
-0.1125540E+01 -0.2607738E-30
-0.1125030E+01 -0.3558496E-30
-0.1124520E+01 -0.4717606E-30
-0.1124010E+01 -0.6082232E-30
-0.1123500E+01 -0.7622817E-30
-0.1122990E+01 -0.9269458E-30
-0.1122480E+01 -0.1089443E-29
-0.1121970E+01 -0.1229046E-29
-0.1121460E+01 -0.1314472E-29
-0.1120950E+01 -0.1300856E-29
-0.1120440E+01 -0.1126412E-29
-0.1119930E+01 -0.7089246E-30
-0.1119420E+01  0.5765052E-31
-0.1118910E+01  0.1306048E-29
-0.1118400E+01  0.3197432E-29
-0.1117890E+01  0.5921201E-29
-0.1117380E+01  0.9691802E-29
-0.1116870E+01  0.1474120E-28
-0.1116360E+01  0.2130543E-28
-0.1115850E+01  0.2960322E-28
-0.1115340E+01  0.3980456E-28
-0.1114830E+01  0.5198695E-28
-0.1114320E+01  0.6607660E-28
-0.1113810E+01  0.8177264E-28
-0.1113300E+01  0.9845215E-28
-0.1112790E+01  0.1150550E-27
-0.1112280E+01  0.1299485E-27
-0.1111770E+01  0.1407740E-27
-0.1111260E+01  0.1442797E-27
-0.1110750E+01  0.1361472E-27
-0.1110240E+01  0.1108252E-27
-0.1109730E+01  0.6138615E-28
-0.1109220E+01 -0.2056910E-28
-0.1108710E+01 -0.1449285E-27
-0.1108200E+01 -0.3229685E-27
-0.1107690E+01 -0.5670890E-27
-0.1107180E+01 -0.8903280E-27
-0.1106670E+01 -0.1305593E-26
-0.1106160E+01 -0.1824541E-26
-0.1105650E+01 -0.2456030E-26
-0.1105140E+01 -0.3204082E-26
-0.1104630E+01 -0.4065278E-26
-0.1104120E+01 -0.5025559E-26
-0.1103610E+01 -0.6056387E-26
-0.1103100E+01 -0.7110298E-26
-0.1102590E+01 -0.8115910E-26
-0.1102080E+01 -0.8972527E-26
-0.1101570E+01 -0.9544559E-26
-0.1101060E+01 -0.9656095E-26
-0.1100550E+01 -0.9086089E-26
-0.1100040E+01 -0.7564757E-26
-0.1099530E+01 -0.4771946E-26
-0.1099020E+01 -0.3383976E-27
-0.1098510E+01  0.6149001E-26
-0.1098000E+01  0.1513675E-25
-0.1097490E+01  0.2708769E-25
-0.1096980E+01  0.4245589E-25
-0.1096470E+01  0.6165214E-25
-0.1095960E+01  0.8499854E-25
-0.1095450E+01  0.1126712E-24
-0.1094940E+01  0.1446299E-24
-0.1094430E+01  0.1805355E-24
-0.1093920E+01  0.2196538E-24
-0.1093410E+01  0.2607498E-24
-0.1092900E+01  0.3019727E-24
-0.1092390E+01  0.3407383E-24
-0.1091880E+01  0.3736133E-24
-0.1091370E+01  0.3962103E-24
-0.1090860E+01  0.4031042E-24
-0.1090350E+01  0.3877822E-24
-0.1089840E+01  0.3426425E-24
-0.1089330E+01  0.2590593E-24
-0.1088820E+01  0.1275319E-24
-0.1088310E+01 -0.6206062E-25
-0.1087800E+01 -0.3200801E-24
-0.1087290E+01 -0.6566049E-24
-0.1086780E+01 -0.1080743E-23
-0.1086270E+01 -0.1599771E-23
-0.1085760E+01 -0.2218088E-23
-0.1085250E+01 -0.2935990E-23
-0.1084740E+01 -0.3748279E-23
-0.1084230E+01 -0.4642718E-23
-0.1083720E+01 -0.5598405E-23
-0.1083210E+01 -0.6584089E-23
-0.1082700E+01 -0.7556553E-23
-0.1082190E+01 -0.8459135E-23
-0.1081680E+01 -0.9220539E-23
-0.1081170E+01 -0.9754094E-23
-0.1080660E+01 -0.9957609E-23
-0.1080150E+01 -0.9714056E-23
-0.1079640E+01 -0.8893260E-23
-0.1079130E+01 -0.7354814E-23
-0.1078620E+01 -0.4952429E-23
-0.1078110E+01 -0.1539898E-23
-0.1077600E+01  0.3021186E-23
-0.1077090E+01  0.8851851E-23
-0.1076580E+01  0.1604429E-22
-0.1076070E+01  0.2464865E-22
-0.1075560E+01  0.3465816E-22
-0.1075050E+01  0.4599306E-22
-0.1074540E+01  0.5848379E-22
-0.1074030E+01  0.7185411E-22
-0.1073520E+01  0.8570495E-22
-0.1073010E+01  0.9950028E-22
-0.1072500E+01  0.1125559E-21
-0.1071990E+01  0.1240332E-21
-0.1071480E+01  0.1329383E-21
-0.1070970E+01  0.1381297E-21
-0.1070460E+01  0.1383349E-21
-0.1069950E+01  0.1321785E-21
-0.1069440E+01  0.1182219E-21
-0.1068930E+01  0.9501816E-22
-0.1068420E+01  0.6117974E-22
-0.1067910E+01  0.1546212E-22
-0.1067400E+01 -0.4313888E-22
-0.1066890E+01 -0.1152768E-21
-0.1066380E+01 -0.2011334E-21
-0.1065870E+01 -0.3002909E-21
-0.1065360E+01 -0.4116009E-21
-0.1064850E+01 -0.5330568E-21
-0.1064340E+01 -0.6616773E-21
-0.1063830E+01 -0.7934073E-21
-0.1063320E+01 -0.9230479E-21
-0.1062810E+01 -0.1044224E-20
-0.1062300E+01 -0.1149402E-20
-0.1061790E+01 -0.1229963E-20
-0.1061280E+01 -0.1276353E-20
-0.1060770E+01 -0.1278301E-20
-0.1060260E+01 -0.1225138E-20
-0.1059750E+01 -0.1106190E-20
-0.1059240E+01 -0.9112786E-21
-0.1058730E+01 -0.6312986E-21
-0.1058220E+01 -0.2588865E-21
-0.1057710E+01  0.2108492E-21
-0.1057200E+01  0.7795467E-21
-0.1056690E+01  0.1444789E-20
-0.1056180E+01  0.2199313E-20
-0.1055670E+01  0.3030272E-20
-0.1055160E+01  0.3918592E-20
-0.1054650E+01  0.4838484E-20
-0.1054140E+01  0.5757149E-20
-0.1053630E+01  0.6634754E-20
-0.1053120E+01  0.7424721E-20
-0.1052610E+01  0.8074377E-20
-0.1052100E+01  0.8526037E-20
-0.1051590E+01  0.8718513E-20
-0.1051080E+01  0.8589123E-20
-0.1050570E+01  0.8076156E-20
-0.1050060E+01  0.7121807E-20
-0.1049550E+01  0.5675524E-20
-0.1049040E+01  0.3697705E-20
-0.1048530E+01  0.1163642E-20
-0.1048020E+01 -0.1932427E-20
-0.1047510E+01 -0.5573307E-20
-0.1047000E+01 -0.9715077E-20
-0.1046490E+01 -0.1428378E-19
-0.1045980E+01 -0.1917280E-19
-0.1045470E+01 -0.2424121E-19
-0.1044960E+01 -0.2931326E-19
-0.1044450E+01 -0.3417940E-19
-0.1043940E+01 -0.3859888E-19
-0.1043430E+01 -0.4230430E-19
-0.1042920E+01 -0.4500812E-19
-0.1042410E+01 -0.4641127E-19
-0.1041900E+01 -0.4621382E-19
-0.1041390E+01 -0.4412767E-19
-0.1040880E+01 -0.3989098E-19
-0.1040370E+01 -0.3328411E-19
-0.1039860E+01 -0.2414647E-19
-0.1039350E+01 -0.1239394E-19
-0.1038840E+01  0.1964109E-20
-0.1038330E+01  0.1880866E-19
-0.1037820E+01  0.3789698E-19
-0.1037310E+01  0.5885132E-19
-0.1036800E+01  0.8115150E-19
-0.1036290E+01  0.1041324E-18
-0.1035780E+01  0.1269870E-18
-0.1035270E+01  0.1487765E-18
-0.1034760E+01  0.1684467E-18
-0.1034250E+01  0.1848534E-18
-0.1033740E+01  0.1967948E-18
-0.1033230E+01  0.2030517E-18
-0.1032720E+01  0.2024356E-18
-0.1032210E+01  0.1938427E-18
-0.1031700E+01  0.1763129E-18
-0.1031190E+01  0.1490932E-18
-0.1030680E+01  0.1117008E-18
-0.1030170E+01  0.6398630E-19
-0.1029660E+01  0.6192090E-20
-0.1029150E+01 -0.6099653E-19
-0.1028640E+01 -0.1364106E-18
-0.1028130E+01 -0.2183708E-18
-0.1027620E+01 -0.3046778E-18
-0.1027110E+01 -0.3926226E-18
-0.1026600E+01 -0.4790200E-18
-0.1026090E+01 -0.5602660E-18
-0.1025580E+01 -0.6324219E-18
-0.1025070E+01 -0.6913233E-18
-0.1024560E+01 -0.7327160E-18
-0.1024050E+01 -0.7524133E-18
-0.1023540E+01 -0.7464749E-18
-0.1023030E+01 -0.7114006E-18
-0.1022520E+01 -0.6443332E-18
-0.1022010E+01 -0.5432642E-18
-0.1021500E+01 -0.4072342E-18
-0.1020990E+01 -0.2365174E-18
-0.1020480E+01 -0.3278280E-19
-0.1019970E+01  0.2007800E-18
-0.1019460E+01  0.4593788E-18
-0.1018950E+01  0.7365906E-18
-0.1018440E+01  0.1024395E-17
-0.1017930E+01  0.1313277E-17
-0.1017420E+01  0.1592404E-17
-0.1016910E+01  0.1849874E-17
-0.1016400E+01  0.2073050E-17
-0.1015890E+01  0.2248954E-17
-0.1015380E+01  0.2364733E-17
-0.1014870E+01  0.2408181E-17
-0.1014360E+01  0.2368294E-17
-0.1013850E+01  0.2235858E-17
-0.1013340E+01  0.2004025E-17
-0.1012830E+01  0.1668884E-17
-0.1012320E+01  0.1229972E-17
-0.1011810E+01  0.6907190E-18
-0.1011300E+01  0.5879277E-19
-0.1010790E+01 -0.6536833E-18
-0.1010280E+01 -0.1430059E-17
-0.1009770E+01 -0.2249257E-17
-0.1009260E+01 -0.3086055E-17
-0.1008750E+01 -0.3911565E-17
-0.1008240E+01 -0.4693911E-17
-0.1007730E+01 -0.5399097E-17
-0.1007220E+01 -0.5992065E-17
-0.1006710E+01 -0.6437908E-17
-0.1006200E+01 -0.6703212E-17
-0.1005690E+01 -0.6757501E-17
-0.1005180E+01 -0.6574716E-17
-0.1004670E+01 -0.6134701E-17
-0.1004160E+01 -0.5424609E-17
-0.1003650E+01 -0.4440196E-17
-0.1003140E+01 -0.3186915E-17
-0.1002630E+01 -0.1680757E-17
-0.1002120E+01  0.5121536E-19
-0.1001610E+01  0.1970704E-17
-0.1001100E+01  0.4028423E-17
-0.1000590E+01  0.6164784E-17
-0.1000080E+01  0.8311051E-17
-0.9995700E+00  0.1039095E-16
-0.9990600E+00  0.1232272E-16
-0.9985500E+00  0.1402162E-16
-0.9980400E+00  0.1540273E-16
-0.9975300E+00  0.1638408E-16
-0.9970200E+00  0.1688999E-16
-0.9965100E+00  0.1685447E-16
-0.9960000E+00  0.1622455E-16
-0.9954900E+00  0.1496358E-16
-0.9949800E+00  0.1305405E-16
-0.9944700E+00  0.1050015E-16
-0.9939600E+00  0.7329613E-17
-0.9934500E+00  0.3594949E-17
-0.9929400E+00 -0.6261382E-18
-0.9924300E+00 -0.5231245E-17
-0.9919200E+00 -0.1009470E-16
-0.9914100E+00 -0.1506998E-16
-0.9909000E+00 -0.1999312E-16
-0.9903900E+00 -0.2468702E-16
-0.9898800E+00 -0.2896669E-16
-0.9893700E+00 -0.3264516E-16
-0.9888600E+00 -0.3553999E-16
-0.9883500E+00 -0.3748026E-16
-0.9878400E+00 -0.3831359E-16
-0.9873300E+00 -0.3791321E-16
-0.9868200E+00 -0.3618466E-16
-0.9863100E+00 -0.3307185E-16
-0.9858000E+00 -0.2856230E-16
-0.9852900E+00 -0.2269122E-16
-0.9847800E+00 -0.1554418E-16
-0.9842700E+00 -0.7258293E-17
-0.9837600E+00  0.1978456E-17
-0.9832500E+00  0.1192966E-16
-0.9827400E+00  0.2231489E-16
-0.9822300E+00  0.3281599E-16
-0.9817200E+00  0.4308518E-16
-0.9812100E+00  0.5275488E-16
-0.9807000E+00  0.6144890E-16
-0.9801900E+00  0.6879485E-16
-0.9796800E+00  0.7443735E-16
-0.9791700E+00  0.7805158E-16
-0.9786600E+00  0.7935684E-16
-0.9781500E+00  0.7812951E-16
-0.9776400E+00  0.7421503E-16
-0.9771300E+00  0.6753834E-16
-0.9766200E+00  0.5811227E-16
-0.9761100E+00  0.4604357E-16
-0.9756000E+00  0.3153609E-16
-0.9750900E+00  0.1489086E-16
-0.9745800E+00 -0.3497214E-17
-0.9740700E+00 -0.2314602E-16
-0.9735600E+00 -0.4349642E-16
-0.9730500E+00 -0.6392578E-16
-0.9725400E+00 -0.8376448E-16
-0.9720300E+00 -0.1023153E-15
-0.9715200E+00 -0.1188750E-15
-0.9710100E+00 -0.1327574E-15
-0.9705000E+00 -0.1433176E-15
-0.9699900E+00 -0.1499766E-15
-0.9694800E+00 -0.1522446E-15
-0.9689700E+00 -0.1497439E-15
-0.9684600E+00 -0.1422285E-15
-0.9679500E+00 -0.1296011E-15
-0.9674400E+00 -0.1119263E-15
-0.9669300E+00 -0.8943856E-16
-0.9664200E+00 -0.6254605E-16
-0.9659100E+00 -0.3182796E-16
-0.9654000E+00  0.1973508E-17
-0.9648900E+00  0.3796724E-16
-0.9643800E+00  0.7513307E-16
-0.9638700E+00  0.1123472E-15
-0.9633600E+00  0.1484128E-15
-0.9628500E+00  0.1820941E-15
-0.9623400E+00  0.2121553E-15
-0.9618300E+00  0.2374004E-15
-0.9613200E+00  0.2567149E-15
-0.9608100E+00  0.2691070E-15
-0.9603000E+00  0.2737480E-15
-0.9597900E+00  0.2700082E-15
-0.9592800E+00  0.2574902E-15
-0.9587700E+00  0.2360551E-15
-0.9582600E+00  0.2058429E-15
-0.9577500E+00  0.1672840E-15
-0.9572400E+00  0.1211025E-15
-0.9567300E+00  0.6831016E-16
-0.9562200E+00  0.1019018E-16
-0.9557100E+00 -0.5172846E-16
-0.9552000E+00 -0.1157062E-15
-0.9546900E+00 -0.1798369E-15
-0.9541800E+00 -0.2420998E-15
-0.9536700E+00 -0.3004182E-15
-0.9531600E+00 -0.3527230E-15
-0.9526500E+00 -0.3970195E-15
-0.9521400E+00 -0.4314559E-15
-0.9516300E+00 -0.4543906E-15
-0.9511200E+00 -0.4644562E-15
-0.9506100E+00 -0.4606186E-15
-0.9501000E+00 -0.4422281E-15
-0.9495900E+00 -0.4090612E-15
-0.9490800E+00 -0.3613502E-15
-0.9485700E+00 -0.2998007E-15
-0.9480600E+00 -0.2255939E-15
-0.9475500E+00 -0.1403740E-15
-0.9470400E+00 -0.4622004E-16
-0.9465300E+00  0.5439749E-16
-0.9460200E+00  0.1586754E-15
-0.9455100E+00  0.2635498E-15
-0.9450000E+00  0.3657801E-15
-0.9444900E+00  0.4620433E-15
-0.9439800E+00  0.5490354E-15
-0.9434700E+00  0.6235769E-15
-0.9429600E+00  0.6827203E-15
-0.9424500E+00  0.7238548E-15
-0.9419400E+00  0.7448056E-15
-0.9414300E+00  0.7439237E-15
-0.9409200E+00  0.7201639E-15
-0.9404100E+00  0.6731462E-15
-0.9399000E+00  0.6032000E-15
-0.9393900E+00  0.5113869E-15
-0.9388800E+00  0.3995015E-15
-0.9383700E+00  0.2700487E-15
-0.9378600E+00  0.1261981E-15
-0.9373500E+00 -0.2828605E-16
-0.9368400E+00 -0.1891358E-15
-0.9363300E+00 -0.3516909E-15
-0.9358200E+00 -0.5110282E-15
-0.9353100E+00 -0.6621036E-15
-0.9348000E+00 -0.7999055E-15
-0.9342900E+00 -0.9196129E-15
-0.9337800E+00 -0.1016754E-14
-0.9332700E+00 -0.1087363E-14
-0.9327600E+00 -0.1128122E-14
-0.9322500E+00 -0.1136495E-14
-0.9317400E+00 -0.1110838E-14
-0.9312300E+00 -0.1050488E-14
-0.9307200E+00 -0.9558214E-15
-0.9302100E+00 -0.8282893E-15
-0.9297000E+00 -0.6704116E-15
-0.9291900E+00 -0.4857436E-15
-0.9286800E+00 -0.2788062E-15
-0.9281700E+00 -0.5498430E-16
-0.9276600E+00  0.1796064E-15
-0.9271500E+00  0.4182799E-15
-0.9266400E+00  0.6539646E-15
-0.9261300E+00  0.8794068E-15
-0.9256200E+00  0.1087387E-14
-0.9251100E+00  0.1270944E-14
-0.9246000E+00  0.1423599E-14
-0.9240900E+00  0.1539570E-14
-0.9235800E+00  0.1613977E-14
-0.9230700E+00  0.1643026E-14
-0.9225600E+00  0.1624160E-14
-0.9220500E+00  0.1556183E-14
-0.9215400E+00  0.1439347E-14
-0.9210300E+00  0.1275391E-14
-0.9205200E+00  0.1067544E-14
-0.9200100E+00  0.8204754E-15
-0.9195000E+00  0.5402017E-15
-0.9189900E+00  0.2339504E-15
-0.9184800E+00 -0.9001923E-16
-0.9179700E+00 -0.4226331E-15
-0.9174600E+00 -0.7542508E-15
-0.9169500E+00 -0.1074939E-14
-0.9164400E+00 -0.1374764E-14
-0.9159300E+00 -0.1644093E-14
-0.9154200E+00 -0.1873893E-14
-0.9149100E+00 -0.2056026E-14
-0.9144000E+00 -0.2183525E-14
-0.9138900E+00 -0.2250835E-14
-0.9133800E+00 -0.2254034E-14
-0.9128700E+00 -0.2190994E-14
-0.9123600E+00 -0.2061505E-14
-0.9118500E+00 -0.1867337E-14
-0.9113400E+00 -0.1612252E-14
-0.9108300E+00 -0.1301942E-14
-0.9103200E+00 -0.9439212E-15
-0.9098100E+00 -0.5473538E-15
-0.9093000E+00 -0.1228228E-15
-0.9087900E+00  0.3179446E-15
-0.9082800E+00  0.7623976E-15
-0.9077700E+00  0.1197515E-14
-0.9072600E+00  0.1610185E-14
-0.9067500E+00  0.1987592E-14
-0.9062400E+00  0.2317617E-14
-0.9057300E+00  0.2589214E-14
-0.9052200E+00  0.2792774E-14
-0.9047100E+00  0.2920450E-14
-0.9042000E+00  0.2966443E-14
-0.9036900E+00  0.2927226E-14
-0.9031800E+00  0.2801710E-14
-0.9026700E+00  0.2591342E-14
-0.9021600E+00  0.2300121E-14
-0.9016500E+00  0.1934547E-14
-0.9011400E+00  0.1503488E-14
-0.9006300E+00  0.1017969E-14
-0.9001200E+00  0.4908986E-15
-0.8996100E+00 -0.6327596E-16
-0.8991000E+00 -0.6289625E-15
-0.8985900E+00 -0.1189864E-14
-0.8980800E+00 -0.1729452E-14
-0.8975700E+00 -0.2231450E-14
-0.8970600E+00 -0.2680332E-14
-0.8965500E+00 -0.3061799E-14
-0.8960400E+00 -0.3363229E-14
-0.8955300E+00 -0.3574098E-14
-0.8950200E+00 -0.3686328E-14
-0.8945100E+00 -0.3694583E-14
-0.8940000E+00 -0.3596484E-14
-0.8934900E+00 -0.3392734E-14
-0.8929800E+00 -0.3087158E-14
-0.8924700E+00 -0.2686653E-14
-0.8919600E+00 -0.2201032E-14
-0.8914500E+00 -0.1642793E-14
-0.8909400E+00 -0.1026794E-14
-0.8904300E+00 -0.3698497E-15
-0.8899200E+00  0.3097276E-15
-0.8894100E+00  0.9926489E-15
-0.8889000E+00  0.1659202E-14
-0.8883900E+00  0.2289830E-14
-0.8878800E+00  0.2865706E-14
-0.8873700E+00  0.3369308E-14
-0.8868600E+00  0.3784949E-14
-0.8863500E+00  0.4099268E-14
-0.8858400E+00  0.4301661E-14
-0.8853300E+00  0.4384625E-14
-0.8848200E+00  0.4344024E-14
-0.8843100E+00  0.4179255E-14
-0.8838000E+00  0.3893312E-14
-0.8832900E+00  0.3492743E-14
-0.8827800E+00  0.2987502E-14
-0.8822700E+00  0.2390699E-14
-0.8817600E+00  0.1718255E-14
-0.8812500E+00  0.9884655E-15
-0.8807400E+00  0.2214986E-15
-0.8802300E+00 -0.5611780E-15
-0.8797200E+00 -0.1337405E-14
-0.8792100E+00 -0.2084970E-14
-0.8787000E+00 -0.2782254E-14
-0.8781900E+00 -0.3408863E-14
-0.8776800E+00 -0.3946232E-14
-0.8771700E+00 -0.4378182E-14
-0.8766600E+00 -0.4691406E-14
-0.8761500E+00 -0.4875883E-14
-0.8756400E+00 -0.4925196E-14
-0.8751300E+00 -0.4836742E-14
-0.8746200E+00 -0.4611842E-14
-0.8741100E+00 -0.4255734E-14
-0.8736000E+00 -0.3777443E-14
-0.8730900E+00 -0.3189560E-14
-0.8725800E+00 -0.2507890E-14
-0.8720700E+00 -0.1751031E-14
-0.8715600E+00 -0.9398452E-15
-0.8710500E+00 -0.9687904E-16
-0.8705400E+00  0.7542797E-15
-0.8700300E+00  0.1589674E-14
-0.8695200E+00  0.2385666E-14
-0.8690100E+00  0.3119619E-14
-0.8685000E+00  0.3770553E-14
-0.8679900E+00  0.4319758E-14
-0.8674800E+00  0.4751342E-14
-0.8669700E+00  0.5052699E-14
-0.8664600E+00  0.5214885E-14
-0.8659500E+00  0.5232888E-14
-0.8654400E+00  0.5105783E-14
-0.8649300E+00  0.4836772E-14
-0.8644200E+00  0.4433100E-14
-0.8639100E+00  0.3905855E-14
-0.8634000E+00  0.3269655E-14
-0.8628900E+00  0.2542228E-14
-0.8623800E+00  0.1743910E-14
-0.8618700E+00  0.8970516E-15
-0.8613600E+00  0.2538040E-16
-0.8608500E+00 -0.8466892E-15
-0.8603400E+00 -0.1694759E-14
-0.8598300E+00 -0.2495151E-14
-0.8593200E+00 -0.3225591E-14
-0.8588100E+00 -0.3865848E-14
-0.8583000E+00 -0.4398309E-14
-0.8577900E+00 -0.4808484E-14
-0.8572800E+00 -0.5085409E-14
-0.8567700E+00 -0.5221946E-14
-0.8562600E+00 -0.5214971E-14
-0.8557500E+00 -0.5065442E-14
-0.8552400E+00 -0.4778343E-14
-0.8547300E+00 -0.4362517E-14
-0.8542200E+00 -0.3830376E-14
-0.8537100E+00 -0.3197521E-14
-0.8532000E+00 -0.2482261E-14
-0.8526900E+00 -0.1705062E-14
-0.8521800E+00 -0.8879368E-15
-0.8516700E+00 -0.5379394E-16
-0.8511600E+00  0.7742265E-15
-0.8506500E+00  0.1573422E-14
-0.8501400E+00  0.2322170E-14
-0.8496300E+00  0.3000535E-14
-0.8491200E+00  0.3590811E-14
-0.8486100E+00  0.4077996E-14
-0.8481000E+00  0.4450176E-14
-0.8475900E+00  0.4698816E-14
-0.8470800E+00  0.4818942E-14
-0.8465700E+00  0.4809223E-14
-0.8460600E+00  0.4671939E-14
-0.8455500E+00  0.4412852E-14
-0.8450400E+00  0.4040974E-14
-0.8445300E+00  0.3568246E-14
-0.8440200E+00  0.3009146E-14
-0.8435100E+00  0.2380227E-14
-0.8430000E+00  0.1699609E-14
-0.8424900E+00  0.9864392E-15
-0.8419800E+00  0.2603377E-15
-0.8414700E+00 -0.4591607E-15
-0.8409600E+00 -0.1153142E-14
-0.8404500E+00 -0.1803820E-14
-0.8399400E+00 -0.2394996E-14
-0.8394300E+00 -0.2912462E-14
-0.8389200E+00 -0.3344336E-14
-0.8384100E+00 -0.3681325E-14
-0.8379000E+00 -0.3916904E-14
-0.8373900E+00 -0.4047417E-14
-0.8368800E+00 -0.4072095E-14
-0.8363700E+00 -0.3992992E-14
-0.8358600E+00 -0.3814845E-14
-0.8353500E+00 -0.3544868E-14
-0.8348400E+00 -0.3192483E-14
-0.8343300E+00 -0.2768996E-14
-0.8338200E+00 -0.2287240E-14
-0.8333100E+00 -0.1761177E-14
-0.8328000E+00 -0.1205493E-14
-0.8322900E+00 -0.6351775E-15
-0.8317800E+00 -0.6511559E-16
-0.8312700E+00  0.4903069E-15
-0.8307600E+00  0.1017570E-14
-0.8302500E+00  0.1504353E-14
-0.8297400E+00  0.1939815E-14
-0.8292300E+00  0.2314837E-14
-0.8287200E+00  0.2622199E-14
-0.8282100E+00  0.2856697E-14
-0.8277000E+00  0.3015211E-14
-0.8271900E+00  0.3096698E-14
-0.8266800E+00  0.3102136E-14
-0.8261700E+00  0.3034414E-14
-0.8256600E+00  0.2898164E-14
-0.8251500E+00  0.2699561E-14
-0.8246400E+00  0.2446080E-14
-0.8241300E+00  0.2146228E-14
-0.8236200E+00  0.1809262E-14
-0.8231100E+00  0.1444896E-14
-0.8226000E+00  0.1063005E-14
-0.8220900E+00  0.6733519E-15
-0.8215800E+00  0.2853193E-15
-0.8210700E+00 -0.9232145E-16
-0.8205600E+00 -0.4516125E-15
-0.8200500E+00 -0.7855727E-15
-0.8195400E+00 -0.1088318E-14
-0.8190300E+00 -0.1355141E-14
-0.8185200E+00 -0.1582539E-14
-0.8180100E+00 -0.1768210E-14
-0.8175000E+00 -0.1911003E-14
-0.8169900E+00 -0.2010833E-14
-0.8164800E+00 -0.2068571E-14
-0.8159700E+00 -0.2085911E-14
-0.8154600E+00 -0.2065218E-14
-0.8149500E+00 -0.2009376E-14
-0.8144400E+00 -0.1921636E-14
-0.8139300E+00 -0.1805460E-14
-0.8134200E+00 -0.1664400E-14
-0.8129100E+00 -0.1501978E-14
-0.8124000E+00 -0.1321599E-14
-0.8118900E+00 -0.1126488E-14
-0.8113800E+00 -0.9196584E-15
-0.8108700E+00 -0.7038962E-15
-0.8103600E+00 -0.4817803E-15
-0.8098500E+00 -0.2557163E-15
-0.8093400E+00 -0.2798847E-16
-0.8088300E+00  0.1991781E-15
-0.8083200E+00  0.4235526E-15
-0.8078100E+00  0.6428349E-15
-0.8073000E+00  0.8546019E-15
-0.8067900E+00  0.1056268E-14
-0.8062800E+00  0.1245065E-14
-0.8057700E+00  0.1418046E-14
-0.8052600E+00  0.1572111E-14
-0.8047500E+00  0.1704064E-14
-0.8042400E+00  0.1810690E-14
-0.8037300E+00  0.1888856E-14
-0.8032200E+00  0.1935630E-14
-0.8027100E+00  0.1948414E-14
-0.8022000E+00  0.1925078E-14
-0.8016900E+00  0.1864100E-14
-0.8011800E+00  0.1764690E-14
-0.8006700E+00  0.1626904E-14
-0.8001600E+00  0.1451735E-14
-0.7996500E+00  0.1241167E-14
-0.7991400E+00  0.9982076E-15
-0.7986300E+00  0.7268734E-15
-0.7981200E+00  0.4321434E-15
-0.7976100E+00  0.1198696E-15
-0.7971000E+00 -0.2033465E-15
-0.7965900E+00 -0.5303122E-15
-0.7960800E+00 -0.8534291E-15
-0.7955700E+00 -0.1164900E-14
-0.7950600E+00 -0.1456950E-14
-0.7945500E+00 -0.1722058E-14
-0.7940400E+00 -0.1953174E-14
-0.7935300E+00 -0.2143943E-14
-0.7930200E+00 -0.2288899E-14
-0.7925100E+00 -0.2383633E-14
-0.7920000E+00 -0.2424941E-14
-0.7914900E+00 -0.2410925E-14
-0.7909800E+00 -0.2341064E-14
-0.7904700E+00 -0.2216235E-14
-0.7899600E+00 -0.2038709E-14
-0.7894500E+00 -0.1812090E-14
-0.7889400E+00 -0.1541232E-14
-0.7884300E+00 -0.1232116E-14
-0.7879200E+00 -0.8917019E-15
-0.7874100E+00 -0.5277507E-15
-0.7869000E+00 -0.1486389E-15
-0.7863900E+00  0.2368477E-15
-0.7858800E+00  0.6197242E-15
-0.7853700E+00  0.9910191E-15
-0.7848600E+00  0.1341983E-14
-0.7843500E+00  0.1664294E-14
-0.7838400E+00  0.1950244E-14
-0.7833300E+00  0.2192922E-14
-0.7828200E+00  0.2386371E-14
-0.7823100E+00  0.2525728E-14
-0.7818000E+00  0.2607343E-14
-0.7812900E+00  0.2628876E-14
-0.7807800E+00  0.2589362E-14
-0.7802700E+00  0.2489254E-14
-0.7797600E+00  0.2330436E-14
-0.7792500E+00  0.2116203E-14
-0.7787400E+00  0.1851211E-14
-0.7782300E+00  0.1541399E-14
-0.7777200E+00  0.1193868E-14
-0.7772100E+00  0.8167402E-15
-0.7767000E+00  0.4189774E-15
-0.7761900E+00  0.1017955E-16
-0.7756800E+00 -0.3996477E-15
-0.7751700E+00 -0.8003426E-15
-0.7746600E+00 -0.1181852E-14
-0.7741500E+00 -0.1534505E-14
-0.7736400E+00 -0.1849282E-14
-0.7731300E+00 -0.2118081E-14
-0.7726200E+00 -0.2333961E-14
-0.7721100E+00 -0.2491361E-14
-0.7716000E+00 -0.2586282E-14
-0.7710900E+00 -0.2616427E-14
-0.7705800E+00 -0.2581287E-14
-0.7700700E+00 -0.2482176E-14
-0.7695600E+00 -0.2322205E-14
-0.7690500E+00 -0.2106192E-14
-0.7685400E+00 -0.1840521E-14
-0.7680300E+00 -0.1532940E-14
-0.7675200E+00 -0.1192315E-14
-0.7670100E+00 -0.8283396E-15
-0.7665000E+00 -0.4512223E-15
-0.7659900E+00 -0.7134904E-16
-0.7654800E+00  0.3010531E-15
-0.7649700E+00  0.6562447E-15
-0.7644600E+00  0.9852801E-15
-0.7639500E+00  0.1280279E-14
-0.7634400E+00  0.1534651E-14
-0.7629300E+00  0.1743271E-14
-0.7624200E+00  0.1902584E-14
-0.7619100E+00  0.2010661E-14
-0.7614000E+00  0.2067174E-14
-0.7608900E+00  0.2073326E-14
-0.7603800E+00  0.2031710E-14
-0.7598700E+00  0.1946134E-14
-0.7593600E+00  0.1821401E-14
-0.7588500E+00  0.1663059E-14
-0.7583400E+00  0.1477153E-14
-0.7578300E+00  0.1269959E-14
-0.7573200E+00  0.1047744E-14
-0.7568100E+00  0.8165463E-15
-0.7563000E+00  0.5819806E-15
-0.7557900E+00  0.3490970E-15
-0.7552800E+00  0.1222745E-15
-0.7547700E+00 -0.9483393E-16
-0.7542600E+00 -0.2993124E-15
-0.7537500E+00 -0.4889504E-15
-0.7532400E+00 -0.6621755E-15
-0.7527300E+00 -0.8179586E-15
-0.7522200E+00 -0.9556995E-15
-0.7517100E+00 -0.1075105E-14
-0.7512000E+00 -0.1176070E-14
-0.7506900E+00 -0.1258564E-14
-0.7501800E+00 -0.1322546E-14
-0.7496700E+00 -0.1367895E-14
-0.7491600E+00 -0.1394381E-14
-0.7486500E+00 -0.1401659E-14
-0.7481400E+00 -0.1389299E-14
-0.7476300E+00 -0.1356845E-14
-0.7471200E+00 -0.1303892E-14
-0.7466100E+00 -0.1230185E-14
-0.7461000E+00 -0.1135725E-14
-0.7455900E+00 -0.1020869E-14
-0.7450800E+00 -0.8864234E-15
-0.7445700E+00 -0.7337212E-15
-0.7440600E+00 -0.5646694E-15
-0.7435500E+00 -0.3817670E-15
-0.7430400E+00 -0.1880890E-15
-0.7425300E+00  0.1276580E-16
-0.7420200E+00  0.2167608E-15
-0.7415100E+00  0.4195375E-15
-0.7410000E+00  0.6165566E-15
-0.7404900E+00  0.8032545E-15
-0.7399800E+00  0.9752094E-15
-0.7394700E+00  0.1128304E-14
-0.7389600E+00  0.1258879E-14
-0.7384500E+00  0.1363866E-14
-0.7379400E+00  0.1440894E-14
-0.7374300E+00  0.1488362E-14
-0.7369200E+00  0.1505475E-14
-0.7364100E+00  0.1492247E-14
-0.7359000E+00  0.1449462E-14
-0.7353900E+00  0.1378603E-14
-0.7348800E+00  0.1281760E-14
-0.7343700E+00  0.1161515E-14
-0.7338600E+00  0.1020810E-14
-0.7333500E+00  0.8628230E-15
-0.7328400E+00  0.6908453E-15
-0.7323300E+00  0.5081724E-15
-0.7318200E+00  0.3180180E-15
-0.7313100E+00  0.1234519E-15
-0.7308000E+00 -0.7263305E-16
-0.7302900E+00 -0.2675279E-15
-0.7297800E+00 -0.4586882E-15
-0.7292700E+00 -0.6436956E-15
-0.7287600E+00 -0.8202045E-15
-0.7282500E+00 -0.9858844E-15
-0.7277400E+00 -0.1138365E-14
-0.7272300E+00 -0.1275194E-14
-0.7267200E+00 -0.1393812E-14
-0.7262100E+00 -0.1491561E-14
-0.7257000E+00 -0.1565716E-14
-0.7251900E+00 -0.1613559E-14
-0.7246800E+00 -0.1632477E-14
-0.7241700E+00 -0.1620099E-14
-0.7236600E+00 -0.1574445E-14
-0.7231500E+00 -0.1494104E-14
-0.7226400E+00 -0.1378397E-14
-0.7221300E+00 -0.1227546E-14
-0.7216200E+00 -0.1042812E-14
-0.7211100E+00 -0.8265979E-15
-0.7206000E+00 -0.5825122E-15
-0.7200900E+00 -0.3153677E-15
-0.7195800E+00 -0.3112433E-16
-0.7190700E+00  0.2632349E-15
-0.7185600E+00  0.5598915E-15
-0.7180500E+00  0.8504372E-15
-0.7175400E+00  0.1126170E-14
-0.7170300E+00  0.1378427E-14
-0.7165200E+00  0.1598935E-14
-0.7160100E+00  0.1780173E-14
-0.7155000E+00  0.1915707E-14
-0.7149900E+00  0.2000505E-14
-0.7144800E+00  0.2031185E-14
-0.7139700E+00  0.2006207E-14
-0.7134600E+00  0.1925979E-14
-0.7129500E+00  0.1792878E-14
-0.7124400E+00  0.1611181E-14
-0.7119300E+00  0.1386902E-14
-0.7114200E+00  0.1127548E-14
-0.7109100E+00  0.8418079E-15
-0.7104000E+00  0.5391818E-15
-0.7098900E+00  0.2295725E-15
-0.7093800E+00 -0.7713534E-16
-0.7088700E+00 -0.3714905E-15
-0.7083600E+00 -0.6448624E-15
-0.7078500E+00 -0.8897791E-15
-0.7073400E+00 -0.1100199E-14
-0.7068300E+00 -0.1271706E-14
-0.7063200E+00 -0.1401608E-14
-0.7058100E+00 -0.1488956E-14
-0.7053000E+00 -0.1534462E-14
-0.7047900E+00 -0.1540342E-14
-0.7042800E+00 -0.1510083E-14
-0.7037700E+00 -0.1448161E-14
-0.7032600E+00 -0.1359719E-14
-0.7027500E+00 -0.1250231E-14
-0.7022400E+00 -0.1125178E-14
-0.7017300E+00 -0.9897423E-15
-0.7012200E+00 -0.8485553E-15
-0.7007100E+00 -0.7054998E-15
-0.7002000E+00 -0.5635844E-15
-0.6996900E+00 -0.4248929E-15
-0.6991800E+00 -0.2906086E-15
-0.6986700E+00 -0.1611097E-15
-0.6981600E+00 -0.3612398E-16
-0.6976500E+00  0.8506905E-16
-0.6971400E+00  0.2034085E-15
-0.6966300E+00  0.3198114E-15
-0.6961200E+00  0.4349424E-15
-0.6956100E+00  0.5490112E-15
-0.6951000E+00  0.6616152E-15
-0.6945900E+00  0.7716405E-15
-0.6940800E+00  0.8772290E-15
-0.6935700E+00  0.9758176E-15
-0.6930600E+00  0.1064246E-14
-0.6925500E+00  0.1138928E-14
-0.6920400E+00  0.1196074E-14
-0.6915300E+00  0.1231950E-14
-0.6910200E+00  0.1243156E-14
-0.6905100E+00  0.1226898E-14