-0.1200000E+01  0.0000000E+00
-0.1199490E+01  0.0000000E+00
-0.1198980E+01  0.0000000E+00
-0.1198470E+01  0.0000000E+00
-0.1197960E+01  0.0000000E+00
-0.1197450E+01  0.0000000E+00
-0.1196940E+01  0.0000000E+00
-0.1196430E+01  0.0000000E+00
-0.1195920E+01  0.0000000E+00
-0.1195410E+01  0.0000000E+00
-0.1194900E+01  0.0000000E+00
-0.1194390E+01  0.0000000E+00
-0.1193880E+01  0.0000000E+00
-0.1193370E+01  0.0000000E+00
-0.1192860E+01  0.0000000E+00
-0.1192350E+01  0.0000000E+00
-0.1191840E+01  0.0000000E+00
-0.1191330E+01  0.0000000E+00
-0.1190820E+01  0.0000000E+00
-0.1190310E+01  0.0000000E+00
-0.1189800E+01  0.0000000E+00
-0.1189290E+01  0.0000000E+00
-0.1188780E+01  0.0000000E+00
-0.1188270E+01  0.0000000E+00
-0.1187760E+01  0.0000000E+00
-0.1187250E+01  0.0000000E+00
-0.1186740E+01  0.0000000E+00
-0.1186230E+01  0.0000000E+00
-0.1185720E+01  0.0000000E+00
-0.1185210E+01  0.0000000E+00
-0.1184700E+01  0.0000000E+00
-0.1184190E+01  0.0000000E+00
-0.1183680E+01  0.0000000E+00
-0.1183170E+01  0.0000000E+00
-0.1182660E+01  0.0000000E+00
-0.1182150E+01  0.0000000E+00
-0.1181640E+01  0.0000000E+00
-0.1181130E+01  0.0000000E+00
-0.1180620E+01  0.0000000E+00
-0.1180110E+01  0.0000000E+00
-0.1179600E+01  0.0000000E+00
-0.1179090E+01  0.0000000E+00
-0.1178580E+01  0.0000000E+00
-0.1178070E+01  0.0000000E+00
-0.1177560E+01  0.0000000E+00
-0.1177050E+01  0.0000000E+00
-0.1176540E+01  0.0000000E+00
-0.1176030E+01  0.0000000E+00
-0.1175520E+01  0.0000000E+00
-0.1175010E+01  0.0000000E+00
-0.1174500E+01  0.0000000E+00
-0.1173990E+01  0.0000000E+00
-0.1173480E+01  0.0000000E+00
-0.1172970E+01  0.0000000E+00
-0.1172460E+01  0.0000000E+00
-0.1171950E+01  0.0000000E+00
-0.1171440E+01  0.0000000E+00
-0.1170930E+01  0.0000000E+00
-0.1170420E+01  0.0000000E+00
-0.1169910E+01  0.0000000E+00
-0.1169400E+01  0.0000000E+00
-0.1168890E+01  0.0000000E+00
-0.1168380E+01  0.0000000E+00
-0.1167870E+01  0.0000000E+00
-0.1167360E+01  0.0000000E+00
-0.1166850E+01  0.0000000E+00
-0.1166340E+01  0.0000000E+00
-0.1165830E+01  0.0000000E+00
-0.1165320E+01  0.0000000E+00
-0.1164810E+01  0.0000000E+00
-0.1164300E+01  0.0000000E+00
-0.1163790E+01  0.0000000E+00
-0.1163280E+01  0.0000000E+00
-0.1162770E+01  0.0000000E+00
-0.1162260E+01  0.0000000E+00
-0.1161750E+01  0.0000000E+00
-0.1161240E+01  0.0000000E+00
-0.1160730E+01  0.0000000E+00
-0.1160220E+01  0.0000000E+00
-0.1159710E+01  0.0000000E+00
-0.1159200E+01  0.0000000E+00
-0.1158690E+01  0.0000000E+00
-0.1158180E+01  0.0000000E+00
-0.1157670E+01  0.0000000E+00
-0.1157160E+01  0.0000000E+00
-0.1156650E+01  0.0000000E+00
-0.1156140E+01  0.0000000E+00
-0.1155630E+01  0.0000000E+00
-0.1155120E+01  0.0000000E+00
-0.1154610E+01  0.0000000E+00
-0.1154100E+01  0.0000000E+00
-0.1153590E+01  0.0000000E+00
-0.1153080E+01  0.0000000E+00
-0.1152570E+01  0.0000000E+00
-0.1152060E+01  0.0000000E+00
-0.1151550E+01  0.0000000E+00
-0.1151040E+01  0.0000000E+00
-0.1150530E+01  0.0000000E+00
-0.1150020E+01  0.0000000E+00
-0.1149510E+01  0.0000000E+00
-0.1149000E+01  0.0000000E+00
-0.1148490E+01  0.0000000E+00
-0.1147980E+01  0.0000000E+00
-0.1147470E+01  0.0000000E+00
-0.1146960E+01  0.0000000E+00
-0.1146450E+01  0.0000000E+00
-0.1145940E+01  0.0000000E+00
-0.1145430E+01  0.0000000E+00
-0.1144920E+01  0.0000000E+00
-0.1144410E+01  0.0000000E+00
-0.1143900E+01  0.0000000E+00
-0.1143390E+01  0.0000000E+00
-0.1142880E+01  0.0000000E+00
-0.1142370E+01  0.0000000E+00
-0.1141860E+01  0.0000000E+00
-0.1141350E+01  0.0000000E+00
-0.1140840E+01  0.0000000E+00
-0.1140330E+01  0.0000000E+00
-0.1139820E+01  0.0000000E+00
-0.1139310E+01  0.0000000E+00
-0.1138800E+01  0.0000000E+00
-0.1138290E+01  0.0000000E+00
-0.1137780E+01  0.0000000E+00
-0.1137270E+01  0.0000000E+00
-0.1136760E+01  0.0000000E+00
-0.1136250E+01  0.0000000E+00
-0.1135740E+01  0.0000000E+00
-0.1135230E+01  0.0000000E+00
-0.1134720E+01  0.0000000E+00
-0.1134210E+01  0.0000000E+00
-0.1133700E+01  0.0000000E+00
-0.1133190E+01  0.0000000E+00
-0.1132680E+01  0.0000000E+00
-0.1132170E+01  0.0000000E+00
-0.1131660E+01  0.0000000E+00
-0.1131150E+01  0.0000000E+00
-0.1130640E+01  0.0000000E+00
-0.1130130E+01  0.0000000E+00
-0.1129620E+01  0.0000000E+00
-0.1129110E+01  0.0000000E+00
-0.1128600E+01  0.0000000E+00
-0.1128090E+01  0.0000000E+00
-0.1127580E+01  0.0000000E+00
-0.1127070E+01  0.0000000E+00
-0.1126560E+01  0.0000000E+00
-0.1126050E+01  0.0000000E+00
-0.1125540E+01  0.0000000E+00
-0.1125030E+01  0.0000000E+00
-0.1124520E+01  0.0000000E+00
-0.1124010E+01  0.0000000E+00
-0.1123500E+01  0.0000000E+00
-0.1122990E+01  0.0000000E+00
-0.1122480E+01  0.0000000E+00
-0.1121970E+01  0.0000000E+00
-0.1121460E+01  0.0000000E+00
-0.1120950E+01  0.0000000E+00
-0.1120440E+01  0.0000000E+00
-0.1119930E+01  0.0000000E+00
-0.1119420E+01  0.0000000E+00
-0.1118910E+01  0.0000000E+00
-0.1118400E+01  0.0000000E+00
-0.1117890E+01  0.0000000E+00
-0.1117380E+01  0.0000000E+00
-0.1116870E+01  0.0000000E+00
-0.1116360E+01  0.0000000E+00
-0.1115850E+01  0.0000000E+00
-0.1115340E+01  0.0000000E+00
-0.1114830E+01  0.0000000E+00
-0.1114320E+01  0.0000000E+00
-0.1113810E+01  0.0000000E+00
-0.1113300E+01  0.0000000E+00
-0.1112790E+01  0.0000000E+00
-0.1112280E+01  0.0000000E+00
-0.1111770E+01  0.0000000E+00
-0.1111260E+01  0.0000000E+00
-0.1110750E+01  0.0000000E+00
-0.1110240E+01  0.0000000E+00
-0.1109730E+01  0.0000000E+00
-0.1109220E+01  0.0000000E+00
-0.1108710E+01  0.0000000E+00
-0.1108200E+01  0.0000000E+00
-0.1107690E+01  0.0000000E+00
-0.1107180E+01  0.0000000E+00
-0.1106670E+01  0.0000000E+00
-0.1106160E+01  0.0000000E+00
-0.1105650E+01  0.0000000E+00
-0.1105140E+01  0.0000000E+00
-0.1104630E+01  0.0000000E+00
-0.1104120E+01  0.0000000E+00
-0.1103610E+01  0.0000000E+00
-0.1103100E+01  0.0000000E+00
-0.1102590E+01  0.0000000E+00
-0.1102080E+01  0.0000000E+00
-0.1101570E+01  0.0000000E+00
-0.1101060E+01  0.0000000E+00
-0.1100550E+01  0.0000000E+00
-0.1100040E+01  0.0000000E+00
-0.1099530E+01  0.0000000E+00
-0.1099020E+01  0.0000000E+00
-0.1098510E+01  0.0000000E+00
-0.1098000E+01  0.0000000E+00
-0.1097490E+01  0.0000000E+00
-0.1096980E+01  0.0000000E+00
-0.1096470E+01  0.0000000E+00
-0.1095960E+01  0.0000000E+00
-0.1095450E+01  0.0000000E+00
-0.1094940E+01  0.0000000E+00
-0.1094430E+01  0.0000000E+00
-0.1093920E+01  0.0000000E+00
-0.1093410E+01  0.0000000E+00
-0.1092900E+01  0.0000000E+00
-0.1092390E+01  0.0000000E+00
-0.1091880E+01  0.0000000E+00
-0.1091370E+01  0.0000000E+00
-0.1090860E+01  0.0000000E+00
-0.1090350E+01  0.0000000E+00
-0.1089840E+01  0.0000000E+00
-0.1089330E+01  0.0000000E+00
-0.1088820E+01  0.0000000E+00
-0.1088310E+01  0.0000000E+00
-0.1087800E+01  0.0000000E+00
-0.1087290E+01  0.0000000E+00
-0.1086780E+01  0.0000000E+00
-0.1086270E+01  0.0000000E+00
-0.1085760E+01  0.0000000E+00
-0.1085250E+01  0.0000000E+00
-0.1084740E+01  0.0000000E+00
-0.1084230E+01  0.0000000E+00
-0.1083720E+01  0.0000000E+00
-0.1083210E+01  0.0000000E+00
-0.1082700E+01  0.0000000E+00
-0.1082190E+01  0.0000000E+00
-0.1081680E+01  0.0000000E+00
-0.1081170E+01  0.0000000E+00
-0.1080660E+01  0.0000000E+00
-0.1080150E+01  0.0000000E+00
-0.1079640E+01  0.0000000E+00
-0.1079130E+01  0.0000000E+00
-0.1078620E+01  0.0000000E+00
-0.1078110E+01  0.0000000E+00
-0.1077600E+01  0.0000000E+00
-0.1077090E+01  0.0000000E+00
-0.1076580E+01  0.0000000E+00
-0.1076070E+01  0.0000000E+00
-0.1075560E+01  0.0000000E+00
-0.1075050E+01  0.0000000E+00
-0.1074540E+01  0.0000000E+00
-0.1074030E+01  0.0000000E+00
-0.1073520E+01  0.0000000E+00
-0.1073010E+01  0.0000000E+00
-0.1072500E+01  0.0000000E+00
-0.1071990E+01  0.0000000E+00
-0.1071480E+01  0.0000000E+00
-0.1070970E+01  0.0000000E+00
-0.1070460E+01  0.0000000E+00
-0.1069950E+01  0.0000000E+00
-0.1069440E+01  0.0000000E+00
-0.1068930E+01  0.0000000E+00
-0.1068420E+01  0.0000000E+00
-0.1067910E+01  0.0000000E+00
-0.1067400E+01  0.0000000E+00
-0.1066890E+01  0.0000000E+00
-0.1066380E+01  0.0000000E+00
-0.1065870E+01  0.0000000E+00
-0.1065360E+01  0.0000000E+00
-0.1064850E+01  0.0000000E+00
-0.1064340E+01  0.0000000E+00
-0.1063830E+01  0.0000000E+00
-0.1063320E+01  0.0000000E+00
-0.1062810E+01  0.0000000E+00
-0.1062300E+01  0.0000000E+00
-0.1061790E+01  0.0000000E+00
-0.1061280E+01  0.0000000E+00
-0.1060770E+01  0.0000000E+00
-0.1060260E+01  0.0000000E+00
-0.1059750E+01  0.0000000E+00
-0.1059240E+01  0.0000000E+00
-0.1058730E+01  0.0000000E+00
-0.1058220E+01  0.0000000E+00
-0.1057710E+01  0.0000000E+00
-0.1057200E+01  0.0000000E+00
-0.1056690E+01  0.0000000E+00
-0.1056180E+01  0.0000000E+00
-0.1055670E+01  0.0000000E+00
-0.1055160E+01  0.0000000E+00
-0.1054650E+01  0.0000000E+00
-0.1054140E+01  0.0000000E+00
-0.1053630E+01  0.0000000E+00
-0.1053120E+01  0.0000000E+00
-0.1052610E+01  0.0000000E+00
-0.1052100E+01  0.0000000E+00
-0.1051590E+01  0.0000000E+00
-0.1051080E+01  0.0000000E+00
-0.1050570E+01  0.0000000E+00
-0.1050060E+01  0.0000000E+00
-0.1049550E+01  0.0000000E+00
-0.1049040E+01  0.0000000E+00
-0.1048530E+01  0.0000000E+00
-0.1048020E+01  0.0000000E+00
-0.1047510E+01  0.0000000E+00
-0.1047000E+01  0.0000000E+00
-0.1046490E+01  0.0000000E+00
-0.1045980E+01  0.0000000E+00
-0.1045470E+01  0.0000000E+00
-0.1044960E+01  0.0000000E+00
-0.1044450E+01  0.0000000E+00
-0.1043940E+01  0.0000000E+00
-0.1043430E+01  0.0000000E+00
-0.1042920E+01  0.0000000E+00
-0.1042410E+01  0.0000000E+00
-0.1041900E+01  0.0000000E+00
-0.1041390E+01  0.0000000E+00
-0.1040880E+01  0.0000000E+00
-0.1040370E+01  0.0000000E+00
-0.1039860E+01  0.0000000E+00
-0.1039350E+01  0.0000000E+00
-0.1038840E+01  0.0000000E+00
-0.1038330E+01  0.0000000E+00
-0.1037820E+01  0.0000000E+00
-0.1037310E+01  0.0000000E+00
-0.1036800E+01  0.0000000E+00
-0.1036290E+01  0.0000000E+00
-0.1035780E+01  0.0000000E+00
-0.1035270E+01  0.0000000E+00
-0.1034760E+01  0.0000000E+00
-0.1034250E+01 -0.0000000E+00
-0.1033740E+01 -0.0000000E+00
-0.1033230E+01 -0.0000000E+00
-0.1032720E+01 -0.0000000E+00
-0.1032210E+01 -0.0000000E+00
-0.1031700E+01 -0.0000000E+00
-0.1031190E+01 -0.0000000E+00
-0.1030680E+01 -0.0000000E+00
-0.1030170E+01  0.0000000E+00
-0.1029660E+01  0.0000000E+00
-0.1029150E+01  0.0000000E+00
-0.1028640E+01  0.0000000E+00
-0.1028130E+01  0.0000000E+00
-0.1027620E+01  0.0000000E+00
-0.1027110E+01  0.0000000E+00
-0.1026600E+01  0.0000000E+00
-0.1026090E+01  0.0000000E+00
-0.1025580E+01  0.0000000E+00
-0.1025070E+01  0.0000000E+00
-0.1024560E+01 -0.0000000E+00
-0.1024050E+01 -0.0000000E+00
-0.1023540E+01 -0.0000000E+00
-0.1023030E+01 -0.0000000E+00
-0.1022520E+01 -0.0000000E+00
-0.1022010E+01 -0.0000000E+00
-0.1021500E+01 -0.0000000E+00
-0.1020990E+01 -0.0000000E+00
-0.1020480E+01 -0.0000000E+00
-0.1019970E+01 -0.0000000E+00
-0.1019460E+01 -0.0000000E+00
-0.1018950E+01  0.0000000E+00
-0.1018440E+01  0.0000000E+00
-0.1017930E+01  0.0000000E+00
-0.1017420E+01 -0.0000000E+00
-0.1016910E+01 -0.0000000E+00
-0.1016400E+01 -0.0000000E+00
-0.1015890E+01 -0.0000000E+00
-0.1015380E+01 -0.0000000E+00
-0.1014870E+01 -0.0000000E+00
-0.1014360E+01 -0.0000000E+00
-0.1013850E+01 -0.0000000E+00
-0.1013340E+01 -0.0000000E+00
-0.1012830E+01 -0.0000000E+00
-0.1012320E+01 -0.0000000E+00
-0.1011810E+01 -0.0000000E+00
-0.1011300E+01 -0.0000000E+00
-0.1010790E+01 -0.0000000E+00
-0.1010280E+01 -0.0000000E+00
-0.1009770E+01 -0.0000000E+00
-0.1009260E+01 -0.0000000E+00
-0.1008750E+01 -0.0000000E+00
-0.1008240E+01 -0.0000000E+00
-0.1007730E+01 -0.0000000E+00
-0.1007220E+01  0.0000000E+00
-0.1006710E+01  0.0000000E+00
-0.1006200E+01  0.0000000E+00
-0.1005690E+01  0.0000000E+00
-0.1005180E+01  0.0000000E+00
-0.1004670E+01  0.0000000E+00
-0.1004160E+01  0.0000000E+00
-0.1003650E+01  0.0000000E+00
-0.1003140E+01  0.0000000E+00
-0.1002630E+01  0.0000000E+00
-0.1002120E+01 -0.0000000E+00
-0.1001610E+01 -0.0000000E+00
-0.1001100E+01 -0.0000000E+00
-0.1000590E+01 -0.0000000E+00
-0.1000080E+01 -0.0000000E+00
-0.9995700E+00 -0.0000000E+00
-0.9990600E+00 -0.0000000E+00
-0.9985500E+00 -0.0000000E+00
-0.9980400E+00 -0.0000000E+00
-0.9975300E+00 -0.0000000E+00
-0.9970200E+00 -0.0000000E+00
-0.9965100E+00 -0.0000000E+00
-0.9960000E+00 -0.0000000E+00
-0.9954900E+00  0.0000000E+00
-0.9949800E+00  0.0000000E+00
-0.9944700E+00  0.0000000E+00
-0.9939600E+00 -0.1895671E-37
-0.9934500E+00 -0.4772227E-37
-0.9929400E+00 -0.8328351E-37
-0.9924300E+00 -0.1229741E-36
-0.9919200E+00 -0.1698722E-36
-0.9914100E+00 -0.2310127E-36
-0.9909000E+00 -0.3077529E-36
-0.9903900E+00 -0.4030821E-36
-0.9898800E+00 -0.5187946E-36
-0.9893700E+00 -0.6556424E-36
-0.9888600E+00 -0.8138178E-36
-0.9883500E+00 -0.9878198E-36
-0.9878400E+00 -0.1172017E-35
-0.9873300E+00 -0.1355438E-35
-0.9868200E+00 -0.1527269E-35
-0.9863100E+00 -0.1669681E-35
-0.9858000E+00 -0.1758916E-35
-0.9852900E+00 -0.1762820E-35
-0.9847800E+00 -0.1642544E-35
-0.9842700E+00 -0.1356647E-35
-0.9837600E+00 -0.8481076E-36
-0.9832500E+00 -0.6049286E-37
-0.9827400E+00  0.1067539E-35
-0.9822300E+00  0.2598590E-35
-0.9817200E+00  0.4592949E-35
-0.9812100E+00  0.7104094E-35
-0.9807000E+00  0.1017209E-34
-0.9801900E+00  0.1381674E-34
-0.9796800E+00  0.1802859E-34
-0.9791700E+00  0.2275862E-34
-0.9786600E+00  0.2790698E-34
-0.9781500E+00  0.3330918E-34
-0.9776400E+00  0.3872350E-34
-0.9771300E+00  0.4381690E-34
-0.9766200E+00  0.4815155E-34
-0.9761100E+00  0.5117296E-34
-0.9756000E+00  0.5220052E-34
-0.9750900E+00  0.5042291E-34
-0.9745800E+00  0.4489855E-34
-0.9740700E+00  0.3456478E-34
-0.9735600E+00  0.1825724E-34
-0.9730500E+00 -0.5257699E-35
-0.9725400E+00 -0.3723507E-34
-0.9720300E+00 -0.7888510E-34
-0.9715200E+00 -0.1312864E-33
-0.9710100E+00 -0.1952765E-33
-0.9705000E+00 -0.2713178E-33
-0.9699900E+00 -0.3593399E-33
-0.9694800E+00 -0.4585565E-33
-0.9689700E+00 -0.5672621E-33
-0.9684600E+00 -0.6826114E-33
-0.9679500E+00 -0.8003888E-33
-0.9674400E+00 -0.9147780E-33
-0.9669300E+00 -0.1018145E-32
-0.9664200E+00 -0.1100854E-32
-0.9659100E+00 -0.1151127E-32
-0.9654000E+00 -0.1154992E-32
-0.9648900E+00 -0.1096325E-32
-0.9643800E+00 -0.9570323E-33
-0.9638700E+00 -0.7174081E-33
-0.9633600E+00 -0.3566947E-33
-0.9628500E+00  0.1461104E-33
-0.9623400E+00  0.8111707E-33
-0.9618300E+00  0.1656418E-32
-0.9613200E+00  0.2695833E-32
-0.9608100E+00  0.3937383E-32
-0.9603000E+00  0.5380634E-32
-0.9597900E+00  0.7014043E-32
-0.9592800E+00  0.8812013E-32
-0.9587700E+00  0.1073176E-31
-0.9582600E+00  0.1271011E-31
-0.9577500E+00  0.1466047E-31
-0.9572400E+00  0.1646997E-31
-0.9567300E+00  0.1799728E-31
-0.9562200E+00  0.1907122E-31
-0.9557100E+00  0.1949046E-31
-0.9552000E+00  0.1902495E-31
-0.9546900E+00  0.1741910E-31
-0.9541800E+00  0.1439747E-31
-0.9536700E+00  0.9673211E-32
-0.9531600E+00  0.2959677E-32
-0.9526500E+00 -0.6014404E-32
-0.9521400E+00 -0.1748598E-31
-0.9516300E+00 -0.3163480E-31
-0.9511200E+00 -0.4855667E-31
-0.9506100E+00 -0.6823304E-31
-0.9501000E+00 -0.9049759E-31
-0.9495900E+00 -0.1150005E-30
-0.9490800E+00 -0.1411715E-30
-0.9485700E+00 -0.1681843E-30
-0.9480600E+00 -0.1949222E-30
-0.9475500E+00 -0.2199508E-30
-0.9470400E+00 -0.2414969E-30
-0.9465300E+00 -0.2574409E-30
-0.9460200E+00 -0.2653228E-30
-0.9455100E+00 -0.2623692E-30
-0.9450000E+00 -0.2455426E-30
-0.9444900E+00 -0.2116200E-30
-0.9439800E+00 -0.1573017E-30
-0.9434700E+00 -0.7935633E-31
-0.9429600E+00  0.2519656E-31
-0.9424500E+00  0.1588656E-30
-0.9419400E+00  0.3234275E-30
-0.9414300E+00  0.5196314E-30
-0.9409200E+00  0.7468714E-30
-0.9404100E+00  0.1002837E-29
-0.9399000E+00  0.1283150E-29
-0.9393900E+00  0.1581009E-29
-0.9388800E+00  0.1886848E-29
-0.9383700E+00  0.2188050E-29
-0.9378600E+00  0.2468725E-29
-0.9373500E+00  0.2709595E-29
-0.9368400E+00  0.2888016E-29
-0.9363300E+00  0.2978168E-29
-0.9358200E+00  0.2951459E-29
-0.9353100E+00  0.2777172E-29
-0.9348000E+00  0.2423389E-29
-0.9342900E+00  0.1858222E-29
-0.9337800E+00  0.1051375E-29
-0.9332700E+00 -0.2396344E-31
-0.9327600E+00 -0.1388896E-29
-0.9322500E+00 -0.3056281E-29
-0.9317400E+00 -0.5027932E-29
-0.9312300E+00 -0.7291629E-29
-0.9307200E+00 -0.9818019E-29
-0.9302100E+00 -0.1255755E-28
-0.9297000E+00 -0.1543758E-28
-0.9291900E+00 -0.1835986E-28
-0.9286800E+00 -0.2119861E-28
-0.9281700E+00 -0.2379941E-28
-0.9276600E+00 -0.2597919E-28
-0.9271500E+00 -0.2752761E-28
-0.9266400E+00 -0.2821005E-28
-0.9261300E+00 -0.2777258E-28
-0.9256200E+00 -0.2594905E-28
-0.9251100E+00 -0.2247060E-28
-0.9246000E+00 -0.1707758E-28
-0.9240900E+00 -0.9534157E-29
-0.9235800E+00  0.3547192E-30
-0.9230700E+00  0.1272399E-28
-0.9225600E+00  0.2762727E-28
-0.9220500E+00  0.4501420E-28
-0.9215400E+00  0.6470721E-28
-0.9210300E+00  0.8637854E-28
-0.9205200E+00  0.1095287E-27
-0.9200100E+00  0.1334678E-27
-0.9195000E+00  0.1573014E-27
-0.9189900E+00  0.1799220E-27
-0.9184800E+00  0.2000095E-27
-0.9179700E+00  0.2160400E-27
-0.9174600E+00  0.2263084E-27
-0.9169500E+00  0.2289625E-27
-0.9164400E+00  0.2220538E-27
-0.9159300E+00  0.2036039E-27
-0.9154200E+00  0.1716880E-27
-0.9149100E+00  0.1245360E-27
-0.9144000E+00  0.6064924E-28
-0.9138900E+00 -0.2106706E-28
-0.9133800E+00 -0.1211598E-27
-0.9128700E+00 -0.2394755E-27
-0.9123600E+00 -0.3750052E-27
-0.9118500E+00 -0.5257322E-27
-0.9113400E+00 -0.6884916E-27
-0.9108300E+00 -0.8588500E-27
-0.9103200E+00 -0.1031016E-26
-0.9098100E+00 -0.1197790E-26
-0.9093000E+00 -0.1350574E-26
-0.9087900E+00 -0.1479434E-26
-0.9082800E+00 -0.1573254E-26
-0.9077700E+00 -0.1619962E-26
-0.9072600E+00 -0.1606862E-26
-0.9067500E+00 -0.1521058E-26
-0.9062400E+00 -0.1349994E-26
-0.9057300E+00 -0.1082083E-26
-0.9052200E+00 -0.7074433E-27
-0.9047100E+00 -0.2187125E-27
-0.9042000E+00  0.3880695E-27
-0.9036900E+00  0.1112539E-26
-0.9031800E+00  0.1949083E-26
-0.9026700E+00  0.2885938E-26
-0.9021600E+00  0.3904387E-26
-0.9016500E+00  0.4978075E-26
-0.9011400E+00  0.6072532E-26
-0.9006300E+00  0.7144947E-26
-0.9001200E+00  0.8144272E-26
-0.8996100E+00  0.9011710E-26
-0.8991000E+00  0.9681651E-26
-0.8985900E+00  0.1008311E-25
-0.8980800E+00  0.1014171E-25
-0.8975700E+00  0.9782208E-26
-0.8970600E+00  0.8931630E-26
-0.8965500E+00  0.7522923E-26
-0.8960400E+00  0.5499118E-26
-0.8955300E+00  0.2817916E-26
-0.8950200E+00 -0.5434329E-27
-0.8945100E+00 -0.4583098E-26
-0.8940000E+00 -0.9269689E-26
-0.8934900E+00 -0.1453755E-25
-0.8929800E+00 -0.2028260E-25
-0.8924700E+00 -0.2635899E-25
-0.8919600E+00 -0.3257696E-25
-0.8914500E+00 -0.3870211E-25
-0.8909400E+00 -0.4445653E-25
-0.8904300E+00 -0.4952201E-25
-0.8899200E+00 -0.5354568E-25
-0.8894100E+00 -0.5614825E-25
-0.8889000E+00 -0.5693507E-25
-0.8883900E+00 -0.5550999E-25
-0.8878800E+00 -0.5149211E-25
-0.8873700E+00 -0.4453507E-25
-0.8868600E+00 -0.3434867E-25
-0.8863500E+00 -0.2072233E-25
-0.8858400E+00 -0.3549619E-26
-0.8853300E+00  0.1714689E-25
-0.8848200E+00  0.4119153E-25
-0.8843100E+00  0.6823340E-25
-0.8838000E+00  0.9772743E-25
-0.8832900E+00  0.1289202E-24
-0.8827800E+00  0.1608421E-24
-0.8822700E+00  0.1923070E-24
-0.8817600E+00  0.2219210E-24
-0.8812500E+00  0.2481027E-24
-0.8807400E+00  0.2691138E-24
-0.8802300E+00  0.2831032E-24
-0.8797200E+00  0.2881644E-24
-0.8792100E+00  0.2824043E-24
-0.8787000E+00  0.2640267E-24
-0.8781900E+00  0.2314252E-24
-0.8776800E+00  0.1832859E-24
-0.8771700E+00  0.1186973E-24
-0.8766600E+00  0.3726191E-25
-0.8761500E+00 -0.6079170E-25
-0.8756400E+00 -0.1745044E-24
-0.8751300E+00 -0.3020928E-24
-0.8746200E+00 -0.4408737E-24
-0.8741100E+00 -0.5872129E-24
-0.8736000E+00 -0.7365046E-24
-0.8730900E+00 -0.8831881E-24
-0.8725800E+00 -0.1020807E-23
-0.8720700E+00 -0.1142119E-23
-0.8715600E+00 -0.1239255E-23
-0.8710500E+00 -0.1303932E-23
-0.8705400E+00 -0.1327728E-23
-0.8700300E+00 -0.1302402E-23
-0.8695200E+00 -0.1220272E-23
-0.8690100E+00 -0.1074623E-23
-0.8685000E+00 -0.8601625E-24
-0.8679900E+00 -0.5734810E-24
-0.8674800E+00 -0.2135241E-24
-0.8669700E+00  0.2179572E-24
-0.8664600E+00  0.7159923E-24
-0.8659500E+00  0.1272041E-23
-0.8654400E+00  0.1873732E-23
-0.8649300E+00  0.2504710E-23
-0.8644200E+00  0.3144633E-23
-0.8639100E+00  0.3769322E-23
-0.8634000E+00  0.4351102E-23
-0.8628900E+00  0.4859342E-23
-0.8623800E+00  0.5261211E-23
-0.8618700E+00  0.5522644E-23
-0.8613600E+00  0.5609530E-23
-0.8608500E+00  0.5489092E-23
-0.8603400E+00  0.5131444E-23
-0.8598300E+00  0.4511286E-23
-0.8593200E+00  0.3609693E-23
-0.8588100E+00  0.2415930E-23
-0.8583000E+00  0.9292382E-24
-0.8577900E+00 -0.8395048E-24
-0.8572800E+00 -0.2866325E-23
-0.8567700E+00 -0.5112992E-23
-0.8562600E+00 -0.7526254E-23
-0.8557500E+00 -0.1003756E-22
-0.8552400E+00 -0.1256335E-22
-0.8547300E+00 -0.1500606E-22
-0.8542200E+00 -0.1725575E-22
-0.8537100E+00 -0.1919258E-22
-0.8532000E+00 -0.2069009E-22
-0.8526900E+00 -0.2161919E-22
-0.8521800E+00 -0.2185294E-22
-0.8516700E+00 -0.2127200E-22
-0.8511600E+00 -0.1977057E-22
-0.8506500E+00 -0.1726280E-22
-0.8501400E+00 -0.1368928E-22
-0.8496300E+00 -0.9023582E-23
-0.8491200E+00 -0.3278375E-23
-0.8486100E+00  0.3489002E-23
-0.8481000E+00  0.1117197E-22
-0.8475900E+00  0.1961139E-22
-0.8470800E+00  0.2859388E-22
-0.8465700E+00  0.3785201E-22
-0.8460600E+00  0.4706674E-22
-0.8455500E+00  0.5587225E-22
-0.8450400E+00  0.6386345E-22
-0.8445300E+00  0.7060605E-22
-0.8440200E+00  0.7564946E-22
-0.8435100E+00  0.7854219E-22
-0.8430000E+00  0.7884950E-22
-0.8424900E+00  0.7617317E-22
-0.8419800E+00  0.7017255E-22
-0.8414700E+00  0.6058657E-22
-0.8409600E+00  0.4725566E-22
-0.8404500E+00  0.3014301E-22
-0.8399400E+00  0.9353841E-23
-0.8394300E+00 -0.1484793E-22
-0.8389200E+00 -0.4202708E-22
-0.8384100E+00 -0.7156941E-22
-0.8379000E+00 -0.1026800E-21
-0.8373900E+00 -0.1343882E-21
-0.8368800E+00 -0.1655611E-21
-0.8363700E+00 -0.1949237E-21
-0.8358600E+00 -0.2210895E-21
-0.8353500E+00 -0.2425984E-21
-0.8348400E+00 -0.2579630E-21
-0.8343300E+00 -0.2657236E-21
-0.8338200E+00 -0.2645081E-21
-0.8333100E+00 -0.2530985E-21
-0.8328000E+00 -0.2304991E-21
-0.8322900E+00 -0.1960065E-21
-0.8317800E+00 -0.1492775E-21
-0.8312700E+00 -0.9039207E-22
-0.8307600E+00 -0.1990846E-22
-0.8302500E+00  0.6109261E-22
-0.8297400E+00  0.1509784E-21
-0.8292300E+00  0.2475522E-21
-0.8287200E+00  0.3480611E-21
-0.8282100E+00  0.4492278E-21
-0.8277000E+00  0.5473057E-21
-0.8271900E+00  0.6381603E-21
-0.8266800E+00  0.7173768E-21
-0.8261700E+00  0.7803924E-21
-0.8256600E+00  0.8226523E-21
-0.8251500E+00  0.8397856E-21
-0.8246400E+00  0.8277979E-21
-0.8241300E+00  0.7832741E-21
-0.8236200E+00  0.7035854E-21
-0.8231100E+00  0.5870936E-21
-0.8226000E+00  0.4333423E-21
-0.8220900E+00  0.2432291E-21
-0.8215800E+00  0.1914641E-22
-0.8210700E+00 -0.2349165E-21
-0.8205600E+00 -0.5133200E-21
-0.8200500E+00 -0.8087773E-21
-0.8195400E+00 -0.1112421E-20
-0.8190300E+00 -0.1413940E-20
-0.8185200E+00 -0.1701786E-20
-0.8180100E+00 -0.1963460E-20
-0.8175000E+00 -0.2185860E-20
-0.8169900E+00 -0.2355712E-20
-0.8164800E+00 -0.2460042E-20
-0.8159700E+00 -0.2486712E-20
-0.8154600E+00 -0.2424980E-20
-0.8149500E+00 -0.2266084E-20
-0.8144400E+00 -0.2003812E-20
-0.8139300E+00 -0.1635057E-20
-0.8134200E+00 -0.1160313E-20
-0.8129100E+00 -0.5840984E-21
-0.8124000E+00  0.8472131E-22
-0.8118900E+00  0.8327410E-21
-0.8113800E+00  0.1641968E-20
-0.8108700E+00  0.2489943E-20
-0.8103600E+00  0.3350048E-20
-0.8098500E+00  0.4192003E-20
-0.8093400E+00  0.4982566E-20
-0.8088300E+00  0.5686423E-20
-0.8083200E+00  0.6267266E-20
-0.8078100E+00  0.6689033E-20
-0.8073000E+00  0.6917283E-20
-0.8067900E+00  0.6920676E-20
-0.8062800E+00  0.6672508E-20
-0.8057700E+00  0.6152243E-20
-0.8052600E+00  0.5347001E-20
-0.8047500E+00  0.4252927E-20
-0.8042400E+00  0.2876375E-20
-0.8037300E+00  0.1234853E-20
-0.8032200E+00 -0.6423476E-21
-0.8027100E+00 -0.2713891E-20
-0.8022000E+00 -0.4926550E-20
-0.8016900E+00 -0.7215833E-20
-0.8011800E+00 -0.9507089E-20
-0.8006700E+00 -0.1171712E-19
-0.8001600E+00 -0.1375631E-19
-0.7996500E+00 -0.1553119E-19
-0.7991400E+00 -0.1694746E-19
-0.7986300E+00 -0.1791342E-19
-0.7981200E+00 -0.1834357E-19
-0.7976100E+00 -0.1816249E-19
-0.7971000E+00 -0.1730870E-19
-0.7965900E+00 -0.1573849E-19
-0.7960800E+00 -0.1342943E-19
-0.7955700E+00 -0.1038353E-19
-0.7950600E+00 -0.6629862E-20
-0.7945500E+00 -0.2226381E-20
-0.7940400E+00  0.2739049E-20
-0.7935300E+00  0.8148652E-20
-0.7930200E+00  0.1385583E-19
-0.7925100E+00  0.1968745E-19
-0.7920000E+00  0.2544731E-19
-0.7914900E+00  0.3092085E-19
-0.7909800E+00  0.3588104E-19
-0.7904700E+00  0.4009532E-19
-0.7899600E+00  0.4333347E-19
-0.7894500E+00  0.4537625E-19
-0.7889400E+00  0.4602448E-19
-0.7884300E+00  0.4510839E-19
-0.7879200E+00  0.4249680E-19
-0.7874100E+00  0.3810590E-19
-0.7869000E+00  0.3190714E-19
-0.7863900E+00  0.2393394E-19
-0.7858800E+00  0.1428685E-19
-0.7853700E+00  0.3136745E-20
-0.7848600E+00 -0.9274172E-20
-0.7843500E+00 -0.2263390E-19
-0.7838400E+00 -0.3656481E-19
-0.7833300E+00 -0.5063066E-19
-0.7828200E+00 -0.6434639E-19
-0.7823100E+00 -0.7719070E-19
-0.7818000E+00 -0.8862115E-19
-0.7812900E+00 -0.9809154E-19
-0.7807800E+00 -0.1050712E-18
-0.7802700E+00 -0.1090653E-18
-0.7797600E+00 -0.1096364E-18
-0.7792500E+00 -0.1064257E-18
-0.7787400E+00 -0.9917316E-19
-0.7782300E+00 -0.8773697E-19
-0.7777200E+00 -0.7210964E-19
-0.7772100E+00 -0.5243143E-19
-0.7767000E+00 -0.2899959E-19
-0.7761900E+00 -0.2272800E-20
-0.7756800E+00  0.2712969E-19
-0.7751700E+00  0.5843477E-19
-0.7746600E+00  0.9072831E-19
-0.7741500E+00  0.1229743E-18
-0.7736400E+00  0.1540400E-18
-0.7731300E+00  0.1827271E-18
-0.7726200E+00  0.2078081E-18
-0.7721100E+00  0.2280667E-18
-0.7716000E+00  0.2423423E-18
-0.7710900E+00  0.2495759E-18
-0.7705800E+00  0.2488570E-18
-0.7700700E+00  0.2394692E-18
-0.7695600E+00  0.2209339E-18
-0.7690500E+00  0.1930483E-18
-0.7685400E+00  0.1559180E-18
-0.7680300E+00  0.1099813E-18
-0.7675200E+00  0.5602401E-19
-0.7670100E+00 -0.4816676E-20
-0.7665000E+00 -0.7106064E-19
-0.7659900E+00 -0.1409058E-18
-0.7654800E+00 -0.2122627E-18
-0.7649700E+00 -0.2828016E-18
-0.7644600E+00 -0.3500132E-18
-0.7639500E+00 -0.4112800E-18
-0.7634400E+00 -0.4639587E-18
-0.7629300E+00 -0.5054697E-18
-0.7624200E+00 -0.5333930E-18
-0.7619100E+00 -0.5455666E-18
-0.7614000E+00 -0.5401842E-18
-0.7608900E+00 -0.5158888E-18
-0.7603800E+00 -0.4718592E-18
-0.7598700E+00 -0.4078844E-18
-0.7593600E+00 -0.3244235E-18
-0.7588500E+00 -0.2226476E-18
-0.7583400E+00 -0.1044592E-18
-0.7578300E+00  0.2751058E-19
-0.7573200E+00  0.1699321E-18
-0.7568100E+00  0.3188327E-18
-0.7563000E+00  0.4696803E-18
-0.7557900E+00  0.6174930E-18
-0.7552800E+00  0.7569731E-18
-0.7547700E+00  0.8826640E-18
-0.7542600E+00  0.9891249E-18
-0.7537500E+00  0.1071120E-17
-0.7532400E+00  0.1123815E-17
-0.7527300E+00  0.1142978E-17
-0.7522200E+00  0.1125171E-17
-0.7517100E+00  0.1067940E-17
-0.7512000E+00  0.9699714E-18
-0.7506900E+00  0.8312344E-18
-0.7501800E+00  0.6530859E-18
-0.7496700E+00  0.4383350E-18
-0.7491600E+00  0.1912644E-18
-0.7486500E+00 -0.8239830E-19
-0.7481400E+00 -0.3755606E-18
-0.7476300E+00 -0.6798986E-18
-0.7471200E+00 -0.9860438E-18
-0.7466100E+00 -0.1283819E-17
-0.7461000E+00 -0.1562524E-17
-0.7455900E+00 -0.1811255E-17
-0.7450800E+00 -0.2019265E-17
-0.7445700E+00 -0.2176336E-17
-0.7440600E+00 -0.2273175E-17
-0.7435500E+00 -0.2301795E-17
-0.7430400E+00 -0.2255892E-17
-0.7425300E+00 -0.2131185E-17
-0.7420200E+00 -0.1925722E-17
-0.7415100E+00 -0.1640118E-17
-0.7410000E+00 -0.1277739E-17
-0.7404900E+00 -0.8447897E-18
-0.7399800E+00 -0.3503235E-18
-0.7394700E+00  0.1938488E-18
-0.7389600E+00  0.7733503E-18
-0.7384500E+00  0.1371530E-17
-0.7379400E+00  0.1969855E-17
-0.7374300E+00  0.2548393E-17
-0.7369200E+00  0.3086384E-17
-0.7364100E+00  0.3562871E-17
-0.7359000E+00  0.3957399E-17
-0.7353900E+00  0.4250734E-17
-0.7348800E+00  0.4425602E-17
-0.7343700E+00  0.4467414E-17
-0.7338600E+00  0.4364948E-17
-0.7333500E+00  0.4110976E-17
-0.7328400E+00  0.3702792E-17
-0.7323300E+00  0.3142633E-17
-0.7318200E+00  0.2437957E-17
-0.7313100E+00  0.1601574E-17
-0.7308000E+00  0.6515957E-18
-0.7302900E+00 -0.3887881E-18
-0.7297800E+00 -0.1491724E-17
-0.7292700E+00 -0.2625293E-17
-0.7287600E+00 -0.3754291E-17
-0.7282500E+00 -0.4841165E-17
-0.7277400E+00 -0.5847108E-17
-0.7272300E+00 -0.6733257E-17
-0.7267200E+00 -0.7461986E-17
-0.7262100E+00 -0.7998243E-17
-0.7257000E+00 -0.8310894E-17
-0.7251900E+00 -0.8374030E-17
-0.7246800E+00 -0.8168185E-17
-0.7241700E+00 -0.7681428E-17
-0.7236600E+00 -0.6910271E-17
-0.7231500E+00 -0.5860363E-17
-0.7226400E+00 -0.4546926E-17
-0.7221300E+00 -0.2994897E-17
-0.7216200E+00 -0.1238760E-17
-0.7211100E+00  0.6779490E-18
-0.7206000E+00  0.2703476E-17
-0.7200900E+00  0.4779009E-17
-0.7195800E+00  0.6840146E-17
-0.7190700E+00  0.8818653E-17
-0.7185600E+00  0.1064446E-16
-0.7180500E+00  0.1224783E-16
-0.7175400E+00  0.1356173E-16
-0.7170300E+00  0.1452416E-16
-0.7165200E+00  0.1508053E-16
-0.7160100E+00  0.1518599E-16
-0.7155000E+00  0.1480747E-16
-0.7149900E+00  0.1392557E-16
-0.7144800E+00  0.1253608E-16
-0.7139700E+00  0.1065105E-16
-0.7134600E+00  0.8299522E-17
-0.7129500E+00  0.5527574E-17
-0.7124400E+00  0.2397955E-17
-0.7119300E+00 -0.1010934E-17
-0.7114200E+00 -0.4606611E-17
-0.7109100E+00 -0.8284651E-17
-0.7104000E+00 -0.1193135E-16
-0.7098900E+00 -0.1542685E-16
-0.7093800E+00 -0.1864867E-16
-0.7088700E+00 -0.2147558E-16
-0.7083600E+00 -0.2379156E-16
-0.7078500E+00 -0.2548997E-16
-0.7073400E+00 -0.2647756E-16
-0.7068300E+00 -0.2667837E-16
-0.7063200E+00 -0.2603722E-16
-0.7058100E+00 -0.2452280E-16
-0.7053000E+00 -0.2213015E-16
-0.7047900E+00 -0.1888237E-16
-0.7042800E+00 -0.1483161E-16
-0.7037700E+00 -0.1005912E-16
-0.7032600E+00 -0.4674342E-17
-0.7027500E+00  0.1186944E-17
-0.7022400E+00  0.7365455E-17
-0.7017300E+00  0.1368217E-16
-0.7012200E+00  0.1994294E-16
-0.7007100E+00  0.2594394E-16
-0.7002000E+00  0.3147761E-16
-0.6996900E+00  0.3633921E-16
-0.6991800E+00  0.4033359E-16
-0.6986700E+00  0.4328204E-16
-0.6981600E+00  0.4502902E-16
-0.6976500E+00  0.4544852E-16
-0.6971400E+00  0.4444982E-16
-0.6966300E+00  0.4198246E-16
-0.6961200E+00  0.3804015E-16
-0.6956100E+00  0.3266350E-16
-0.6951000E+00  0.2594137E-16
-0.6945900E+00  0.1801076E-16
-0.6940800E+00  0.9055106E-17
-0.6935700E+00 -0.6990027E-18
-0.6930600E+00 -0.1098668E-16
-0.6925500E+00 -0.2151112E-16
-0.6920400E+00 -0.3195135E-16
-0.6915300E+00 -0.4197116E-16
-0.6910200E+00 -0.5122907E-16
-0.6905100E+00 -0.5938900E-16