-0.1200000E+01 -0.3004802E-18
-0.1199490E+01 -0.3070627E-18
-0.1198980E+01 -0.3137878E-18
-0.1198470E+01 -0.3206587E-18
-0.1197960E+01 -0.3276785E-18
-0.1197450E+01 -0.3348502E-18
-0.1196940E+01 -0.3421771E-18
-0.1196430E+01 -0.3496626E-18
-0.1195920E+01 -0.3573098E-18
-0.1195410E+01 -0.3651223E-18
-0.1194900E+01 -0.3731036E-18
-0.1194390E+01 -0.3812572E-18
-0.1193880E+01 -0.3895868E-18
-0.1193370E+01 -0.3980961E-18
-0.1192860E+01 -0.4067890E-18
-0.1192350E+01 -0.4156695E-18
-0.1191840E+01 -0.4247414E-18
-0.1191330E+01 -0.4340090E-18
-0.1190820E+01 -0.4434764E-18
-0.1190310E+01 -0.4531480E-18
-0.1189800E+01 -0.4630280E-18
-0.1189290E+01 -0.4731211E-18
-0.1188780E+01 -0.4834317E-18
-0.1188270E+01 -0.4939646E-18
-0.1187760E+01 -0.5047244E-18
-0.1187250E+01 -0.5157160E-18
-0.1186740E+01 -0.5269444E-18
-0.1186230E+01 -0.5384146E-18
-0.1185720E+01 -0.5501318E-18
-0.1185210E+01 -0.5621011E-18
-0.1184700E+01 -0.5743279E-18
-0.1184190E+01 -0.5868176E-18
-0.1183680E+01 -0.5995759E-18
-0.1183170E+01 -0.6126083E-18
-0.1182660E+01 -0.6259206E-18
-0.1182150E+01 -0.6395187E-18
-0.1181640E+01 -0.6534087E-18
-0.1181130E+01 -0.6675968E-18
-0.1180620E+01 -0.6820892E-18
-0.1180110E+01 -0.6968923E-18
-0.1179600E+01 -0.7120129E-18
-0.1179090E+01 -0.7274575E-18
-0.1178580E+01 -0.7432332E-18
-0.1178070E+01 -0.7593469E-18
-0.1177560E+01 -0.7758059E-18
-0.1177050E+01 -0.7926175E-18
-0.1176540E+01 -0.8097891E-18
-0.1176030E+01 -0.8273285E-18
-0.1175520E+01 -0.8452434E-18
-0.1175010E+01 -0.8635419E-18
-0.1174500E+01 -0.8822321E-18
-0.1173990E+01 -0.9013222E-18
-0.1173480E+01 -0.9208207E-18
-0.1172970E+01 -0.9407363E-18
-0.1172460E+01 -0.9610777E-18
-0.1171950E+01 -0.9818539E-18
-0.1171440E+01 -0.1003074E-17
-0.1170930E+01 -0.1024748E-17
-0.1170420E+01 -0.1046884E-17
-0.1169910E+01 -0.1069493E-17
-0.1169400E+01 -0.1092584E-17
-0.1168890E+01 -0.1116168E-17
-0.1168380E+01 -0.1140255E-17
-0.1167870E+01 -0.1164856E-17
-0.1167360E+01 -0.1189981E-17
-0.1166850E+01 -0.1215641E-17
-0.1166340E+01 -0.1241848E-17
-0.1165830E+01 -0.1268614E-17
-0.1165320E+01 -0.1295949E-17
-0.1164810E+01 -0.1323866E-17
-0.1164300E+01 -0.1352377E-17
-0.1163790E+01 -0.1381495E-17
-0.1163280E+01 -0.1411233E-17
-0.1162770E+01 -0.1441603E-17
-0.1162260E+01 -0.1472620E-17
-0.1161750E+01 -0.1504295E-17
-0.1161240E+01 -0.1536645E-17
-0.1160730E+01 -0.1569682E-17
-0.1160220E+01 -0.1603420E-17
-0.1159710E+01 -0.1637876E-17
-0.1159200E+01 -0.1673063E-17
-0.1158690E+01 -0.1708998E-17
-0.1158180E+01 -0.1745695E-17
-0.1157670E+01 -0.1783171E-17
-0.1157160E+01 -0.1821442E-17
-0.1156650E+01 -0.1860524E-17
-0.1156140E+01 -0.1900435E-17
-0.1155630E+01 -0.1941192E-17
-0.1155120E+01 -0.1982812E-17
-0.1154610E+01 -0.2025314E-17
-0.1154100E+01 -0.2068716E-17
-0.1153590E+01 -0.2113036E-17
-0.1153080E+01 -0.2158295E-17
-0.1152570E+01 -0.2204511E-17
-0.1152060E+01 -0.2251705E-17
-0.1151550E+01 -0.2299897E-17
-0.1151040E+01 -0.2349109E-17
-0.1150530E+01 -0.2399360E-17
-0.1150020E+01 -0.2450674E-17
-0.1149510E+01 -0.2503072E-17
-0.1149000E+01 -0.2556577E-17
-0.1148490E+01 -0.2611212E-17
-0.1147980E+01 -0.2667001E-17
-0.1147470E+01 -0.2723968E-17
-0.1146960E+01 -0.2782137E-17
-0.1146450E+01 -0.2841533E-17
-0.1145940E+01 -0.2902183E-17
-0.1145430E+01 -0.2964111E-17
-0.1144920E+01 -0.3027346E-17
-0.1144410E+01 -0.3091913E-17
-0.1143900E+01 -0.3157841E-17
-0.1143390E+01 -0.3225157E-17
-0.1142880E+01 -0.3293892E-17
-0.1142370E+01 -0.3364073E-17
-0.1141860E+01 -0.3435732E-17
-0.1141350E+01 -0.3508899E-17
-0.1140840E+01 -0.3583604E-17
-0.1140330E+01 -0.3659881E-17
-0.1139820E+01 -0.3737762E-17
-0.1139310E+01 -0.3817279E-17
-0.1138800E+01 -0.3898468E-17
-0.1138290E+01 -0.3981363E-17
-0.1137780E+01 -0.4065998E-17
-0.1137270E+01 -0.4152412E-17
-0.1136760E+01 -0.4240639E-17
-0.1136250E+01 -0.4330719E-17
-0.1135740E+01 -0.4422689E-17
-0.1135230E+01 -0.4516588E-17
-0.1134720E+01 -0.4612457E-17
-0.1134210E+01 -0.4710337E-17
-0.1133700E+01 -0.4810268E-17
-0.1133190E+01 -0.4912294E-17
-0.1132680E+01 -0.5016458E-17
-0.1132170E+01 -0.5122803E-17
-0.1131660E+01 -0.5231376E-17
-0.1131150E+01 -0.5342222E-17
-0.1130640E+01 -0.5455388E-17
-0.1130130E+01 -0.5570921E-17
-0.1129620E+01 -0.5688871E-17
-0.1129110E+01 -0.5809288E-17
-0.1128600E+01 -0.5932223E-17
-0.1128090E+01 -0.6057727E-17
-0.1127580E+01 -0.6185853E-17
-0.1127070E+01 -0.6316656E-17
-0.1126560E+01 -0.6450190E-17
-0.1126050E+01 -0.6586513E-17
-0.1125540E+01 -0.6725681E-17
-0.1125030E+01 -0.6867754E-17
-0.1124520E+01 -0.7012791E-17
-0.1124010E+01 -0.7160853E-17
-0.1123500E+01 -0.7312003E-17
-0.1122990E+01 -0.7466304E-17
-0.1122480E+01 -0.7623822E-17
-0.1121970E+01 -0.7784622E-17
-0.1121460E+01 -0.7948773E-17
-0.1120950E+01 -0.8116342E-17
-0.1120440E+01 -0.8287401E-17
-0.1119930E+01 -0.8462020E-17
-0.1119420E+01 -0.8640275E-17
-0.1118910E+01 -0.8822237E-17
-0.1118400E+01 -0.9007984E-17
-0.1117890E+01 -0.9197593E-17
-0.1117380E+01 -0.9391144E-17
-0.1116870E+01 -0.9588718E-17
-0.1116360E+01 -0.9790397E-17
-0.1115850E+01 -0.9996265E-17
-0.1115340E+01 -0.1020641E-16
-0.1114830E+01 -0.1042091E-16
-0.1114320E+01 -0.1063987E-16
-0.1113810E+01 -0.1086337E-16
-0.1113300E+01 -0.1109151E-16
-0.1112790E+01 -0.1132438E-16
-0.1112280E+01 -0.1156208E-16
-0.1111770E+01 -0.1180471E-16
-0.1111260E+01 -0.1205236E-16
-0.1110750E+01 -0.1230515E-16
-0.1110240E+01 -0.1256317E-16
-0.1109730E+01 -0.1282653E-16
-0.1109220E+01 -0.1309535E-16
-0.1108710E+01 -0.1336973E-16
-0.1108200E+01 -0.1364979E-16
-0.1107690E+01 -0.1393564E-16
-0.1107180E+01 -0.1422741E-16
-0.1106670E+01 -0.1452520E-16
-0.1106160E+01 -0.1482915E-16
-0.1105650E+01 -0.1513938E-16
-0.1105140E+01 -0.1545602E-16
-0.1104630E+01 -0.1577920E-16
-0.1104120E+01 -0.1610905E-16
-0.1103610E+01 -0.1644572E-16
-0.1103100E+01 -0.1678932E-16
-0.1102590E+01 -0.1714002E-16
-0.1102080E+01 -0.1749795E-16
-0.1101570E+01 -0.1786326E-16
-0.1101060E+01 -0.1823610E-16
-0.1100550E+01 -0.1861663E-16
-0.1100040E+01 -0.1900500E-16
-0.1099530E+01 -0.1940136E-16
-0.1099020E+01 -0.1980589E-16
-0.1098510E+01 -0.2021875E-16
-0.1098000E+01 -0.2064010E-16
-0.1097490E+01 -0.2107013E-16
-0.1096980E+01 -0.2150900E-16
-0.1096470E+01 -0.2195690E-16
-0.1095960E+01 -0.2241400E-16
-0.1095450E+01 -0.2288050E-16
-0.1094940E+01 -0.2335659E-16
-0.1094430E+01 -0.2384246E-16
-0.1093920E+01 -0.2433831E-16
-0.1093410E+01 -0.2484434E-16
-0.1092900E+01 -0.2536076E-16
-0.1092390E+01 -0.2588777E-16
-0.1091880E+01 -0.2642560E-16
-0.1091370E+01 -0.2697446E-16
-0.1090860E+01 -0.2753458E-16
-0.1090350E+01 -0.2810618E-16
-0.1089840E+01 -0.2868950E-16
-0.1089330E+01 -0.2928476E-16
-0.1088820E+01 -0.2989222E-16
-0.1088310E+01 -0.3051213E-16
-0.1087800E+01 -0.3114472E-16
-0.1087290E+01 -0.3179026E-16
-0.1086780E+01 -0.3244901E-16
-0.1086270E+01 -0.3312124E-16
-0.1085760E+01 -0.3380722E-16
-0.1085250E+01 -0.3450723E-16
-0.1084740E+01 -0.3522154E-16
-0.1084230E+01 -0.3595045E-16
-0.1083720E+01 -0.3669425E-16
-0.1083210E+01 -0.3745324E-16
-0.1082700E+01 -0.3822774E-16
-0.1082190E+01 -0.3901804E-16
-0.1081680E+01 -0.3982447E-16
-0.1081170E+01 -0.4064735E-16
-0.1080660E+01 -0.4148703E-16
-0.1080150E+01 -0.4234382E-16
-0.1079640E+01 -0.4321808E-16
-0.1079130E+01 -0.4411016E-16
-0.1078620E+01 -0.4502042E-16
-0.1078110E+01 -0.4594922E-16
-0.1077600E+01 -0.4689694E-16
-0.1077090E+01 -0.4786395E-16
-0.1076580E+01 -0.4885064E-16
-0.1076070E+01 -0.4985741E-16
-0.1075560E+01 -0.5088467E-16
-0.1075050E+01 -0.5193281E-16
-0.1074540E+01 -0.5300227E-16
-0.1074030E+01 -0.5409346E-16
-0.1073520E+01 -0.5520683E-16
-0.1073010E+01 -0.5634281E-16
-0.1072500E+01 -0.5750187E-16
-0.1071990E+01 -0.5868446E-16
-0.1071480E+01 -0.5989106E-16
-0.1070970E+01 -0.6112214E-16
-0.1070460E+01 -0.6237821E-16
-0.1069950E+01 -0.6365975E-16
-0.1069440E+01 -0.6496727E-16
-0.1068930E+01 -0.6630131E-16
-0.1068420E+01 -0.6766237E-16
-0.1067910E+01 -0.6905102E-16
-0.1067400E+01 -0.7046779E-16
-0.1066890E+01 -0.7191326E-16
-0.1066380E+01 -0.7338799E-16
-0.1065870E+01 -0.7489258E-16
-0.1065360E+01 -0.7642760E-16
-0.1064850E+01 -0.7799368E-16
-0.1064340E+01 -0.7959144E-16
-0.1063830E+01 -0.8122149E-16
-0.1063320E+01 -0.8288450E-16
-0.1062810E+01 -0.8458110E-16
-0.1062300E+01 -0.8631199E-16
-0.1061790E+01 -0.8807783E-16
-0.1061280E+01 -0.8987932E-16
-0.1060770E+01 -0.9171718E-16
-0.1060260E+01 -0.9359213E-16
-0.1059750E+01 -0.9550491E-16
-0.1059240E+01 -0.9745627E-16
-0.1058730E+01 -0.9944698E-16
-0.1058220E+01 -0.1014778E-15
-0.1057710E+01 -0.1035496E-15
-0.1057200E+01 -0.1056631E-15
-0.1056690E+01 -0.1078192E-15
-0.1056180E+01 -0.1100186E-15
-0.1055670E+01 -0.1122624E-15
-0.1055160E+01 -0.1145514E-15
-0.1054650E+01 -0.1168864E-15
-0.1054140E+01 -0.1192683E-15
-0.1053630E+01 -0.1216982E-15
-0.1053120E+01 -0.1241769E-15
-0.1052610E+01 -0.1267054E-15
-0.1052100E+01 -0.1292847E-15
-0.1051590E+01 -0.1319159E-15
-0.1051080E+01 -0.1345999E-15
-0.1050570E+01 -0.1373377E-15
-0.1050060E+01 -0.1401305E-15
-0.1049550E+01 -0.1429794E-15
-0.1049040E+01 -0.1458854E-15
-0.1048530E+01 -0.1488497E-15
-0.1048020E+01 -0.1518734E-15
-0.1047510E+01 -0.1549578E-15
-0.1047000E+01 -0.1581039E-15
-0.1046490E+01 -0.1613130E-15
-0.1045980E+01 -0.1645865E-15
-0.1045470E+01 -0.1679255E-15
-0.1044960E+01 -0.1713313E-15
-0.1044450E+01 -0.1748052E-15
-0.1043940E+01 -0.1783487E-15
-0.1043430E+01 -0.1819630E-15
-0.1042920E+01 -0.1856497E-15
-0.1042410E+01 -0.1894099E-15
-0.1041900E+01 -0.1932454E-15
-0.1041390E+01 -0.1971575E-15
-0.1040880E+01 -0.2011477E-15
-0.1040370E+01 -0.2052176E-15
-0.1039860E+01 -0.2093687E-15
-0.1039350E+01 -0.2136027E-15
-0.1038840E+01 -0.2179212E-15
-0.1038330E+01 -0.2223258E-15
-0.1037820E+01 -0.2268182E-15
-0.1037310E+01 -0.2314002E-15
-0.1036800E+01 -0.2360735E-15
-0.1036290E+01 -0.2408399E-15
-0.1035780E+01 -0.2457012E-15
-0.1035270E+01 -0.2506594E-15
-0.1034760E+01 -0.2557163E-15
-0.1034250E+01 -0.2608738E-15
-0.1033740E+01 -0.2661339E-15
-0.1033230E+01 -0.2714987E-15
-0.1032720E+01 -0.2769701E-15
-0.1032210E+01 -0.2825503E-15
-0.1031700E+01 -0.2882415E-15
-0.1031190E+01 -0.2940457E-15
-0.1030680E+01 -0.2999653E-15
-0.1030170E+01 -0.3060024E-15
-0.1029660E+01 -0.3121593E-15
-0.1029150E+01 -0.3184385E-15
-0.1028640E+01 -0.3248422E-15
-0.1028130E+01 -0.3313730E-15
-0.1027620E+01 -0.3380333E-15
-0.1027110E+01 -0.3448257E-15
-0.1026600E+01 -0.3517527E-15
-0.1026090E+01 -0.3588169E-15
-0.1025580E+01 -0.3660211E-15
-0.1025070E+01 -0.3733680E-15
-0.1024560E+01 -0.3808603E-15
-0.1024050E+01 -0.3885010E-15
-0.1023540E+01 -0.3962928E-15
-0.1023030E+01 -0.4042388E-15
-0.1022520E+01 -0.4123419E-15
-0.1022010E+01 -0.4206053E-15
-0.1021500E+01 -0.4290320E-15
-0.1020990E+01 -0.4376252E-15
-0.1020480E+01 -0.4463882E-15
-0.1019970E+01 -0.4553243E-15
-0.1019460E+01 -0.4644367E-15
-0.1018950E+01 -0.4737291E-15
-0.1018440E+01 -0.4832049E-15
-0.1017930E+01 -0.4928676E-15
-0.1017420E+01 -0.5027209E-15
-0.1016910E+01 -0.5127685E-15
-0.1016400E+01 -0.5230142E-15
-0.1015890E+01 -0.5334618E-15
-0.1015380E+01 -0.5441152E-15
-0.1014870E+01 -0.5549784E-15
-0.1014360E+01 -0.5660555E-15
-0.1013850E+01 -0.5773507E-15
-0.1013340E+01 -0.5888682E-15
-0.1012830E+01 -0.6006122E-15
-0.1012320E+01 -0.6125873E-15
-0.1011810E+01 -0.6247977E-15
-0.1011300E+01 -0.6372482E-15
-0.1010790E+01 -0.6499434E-15
-0.1010280E+01 -0.6628879E-15
-0.1009770E+01 -0.6760868E-15
-0.1009260E+01 -0.6895447E-15
-0.1008750E+01 -0.7032669E-15
-0.1008240E+01 -0.7172584E-15
-0.1007730E+01 -0.7315244E-15
-0.1007220E+01 -0.7460702E-15
-0.1006710E+01 -0.7609012E-15
-0.1006200E+01 -0.7760229E-15
-0.1005690E+01 -0.7914411E-15
-0.1005180E+01 -0.8071613E-15
-0.1004670E+01 -0.8231894E-15
-0.1004160E+01 -0.8395314E-15
-0.1003650E+01 -0.8561932E-15
-0.1003140E+01 -0.8731812E-15
-0.1002630E+01 -0.8905016E-15
-0.1002120E+01 -0.9081608E-15
-0.1001610E+01 -0.9261652E-15
-0.1001100E+01 -0.9445216E-15
-0.1000590E+01 -0.9632368E-15
-0.1000080E+01 -0.9823176E-15
-0.9995700E+00 -0.1001771E-14
-0.9990600E+00 -0.1021604E-14
-0.9985500E+00 -0.1041825E-14
-0.9980400E+00 -0.1062440E-14
-0.9975300E+00 -0.1083458E-14
-0.9970200E+00 -0.1104885E-14
-0.9965100E+00 -0.1126730E-14
-0.9960000E+00 -0.1149001E-14
-0.9954900E+00 -0.1171707E-14
-0.9949800E+00 -0.1194854E-14
-0.9944700E+00 -0.1218453E-14
-0.9939600E+00 -0.1242511E-14
-0.9934500E+00 -0.1267037E-14
-0.9929400E+00 -0.1292041E-14
-0.9924300E+00 -0.1317531E-14
-0.9919200E+00 -0.1343516E-14
-0.9914100E+00 -0.1370008E-14
-0.9909000E+00 -0.1397014E-14
-0.9903900E+00 -0.1424545E-14
-0.9898800E+00 -0.1452610E-14
-0.9893700E+00 -0.1481221E-14
-0.9888600E+00 -0.1510388E-14
-0.9883500E+00 -0.1540120E-14
-0.9878400E+00 -0.1570430E-14
-0.9873300E+00 -0.1601327E-14
-0.9868200E+00 -0.1632824E-14
-0.9863100E+00 -0.1664932E-14
-0.9858000E+00 -0.1697662E-14
-0.9852900E+00 -0.1731027E-14
-0.9847800E+00 -0.1765038E-14
-0.9842700E+00 -0.1799708E-14
-0.9837600E+00 -0.1835049E-14
-0.9832500E+00 -0.1871074E-14
-0.9827400E+00 -0.1907797E-14
-0.9822300E+00 -0.1945230E-14
-0.9817200E+00 -0.1983387E-14
-0.9812100E+00 -0.2022282E-14
-0.9807000E+00 -0.2061928E-14
-0.9801900E+00 -0.2102341E-14
-0.9796800E+00 -0.2143535E-14
-0.9791700E+00 -0.2185524E-14
-0.9786600E+00 -0.2228324E-14
-0.9781500E+00 -0.2271950E-14
-0.9776400E+00 -0.2316418E-14
-0.9771300E+00 -0.2361744E-14
-0.9766200E+00 -0.2407944E-14
-0.9761100E+00 -0.2455035E-14
-0.9756000E+00 -0.2503034E-14
-0.9750900E+00 -0.2551957E-14
-0.9745800E+00 -0.2601823E-14
-0.9740700E+00 -0.2652650E-14
-0.9735600E+00 -0.2704455E-14
-0.9730500E+00 -0.2757257E-14
-0.9725400E+00 -0.2811076E-14
-0.9720300E+00 -0.2865929E-14
-0.9715200E+00 -0.2921838E-14
-0.9710100E+00 -0.2978822E-14
-0.9705000E+00 -0.3036901E-14
-0.9699900E+00 -0.3096096E-14
-0.9694800E+00 -0.3156429E-14
-0.9689700E+00 -0.3217920E-14
-0.9684600E+00 -0.3280592E-14
-0.9679500E+00 -0.3344467E-14
-0.9674400E+00 -0.3409567E-14
-0.9669300E+00 -0.3475917E-14
-0.9664200E+00 -0.3543538E-14
-0.9659100E+00 -0.3612457E-14
-0.9654000E+00 -0.3682696E-14
-0.9648900E+00 -0.3754281E-14
-0.9643800E+00 -0.3827238E-14
-0.9638700E+00 -0.3901591E-14
-0.9633600E+00 -0.3977368E-14
-0.9628500E+00 -0.4054596E-14
-0.9623400E+00 -0.4133301E-14
-0.9618300E+00 -0.4213511E-14
-0.9613200E+00 -0.4295256E-14
-0.9608100E+00 -0.4378563E-14
-0.9603000E+00 -0.4463463E-14
-0.9597900E+00 -0.4549984E-14
-0.9592800E+00 -0.4638158E-14
-0.9587700E+00 -0.4728017E-14
-0.9582600E+00 -0.4819591E-14
-0.9577500E+00 -0.4912912E-14
-0.9572400E+00 -0.5008015E-14
-0.9567300E+00 -0.5104931E-14
-0.9562200E+00 -0.5203695E-14
-0.9557100E+00 -0.5304343E-14
-0.9552000E+00 -0.5406908E-14
-0.9546900E+00 -0.5511428E-14
-0.9541800E+00 -0.5617938E-14
-0.9536700E+00 -0.5726477E-14
-0.9531600E+00 -0.5837082E-14
-0.9526500E+00 -0.5949792E-14
-0.9521400E+00 -0.6064645E-14
-0.9516300E+00 -0.6181684E-14
-0.9511200E+00 -0.6300948E-14
-0.9506100E+00 -0.6422478E-14
-0.9501000E+00 -0.6546318E-14
-0.9495900E+00 -0.6672511E-14
-0.9490800E+00 -0.6801100E-14
-0.9485700E+00 -0.6932131E-14
-0.9480600E+00 -0.7065649E-14
-0.9475500E+00 -0.7201701E-14
-0.9470400E+00 -0.7340334E-14
-0.9465300E+00 -0.7481596E-14
-0.9460200E+00 -0.7625537E-14
-0.9455100E+00 -0.7772205E-14
-0.9450000E+00 -0.7921653E-14
-0.9444900E+00 -0.8073932E-14
-0.9439800E+00 -0.8229094E-14
-0.9434700E+00 -0.8387195E-14
-0.9429600E+00 -0.8548288E-14
-0.9424500E+00 -0.8712428E-14
-0.9419400E+00 -0.8879674E-14
-0.9414300E+00 -0.9050083E-14
-0.9409200E+00 -0.9223713E-14
-0.9404100E+00 -0.9400625E-14
-0.9399000E+00 -0.9580879E-14
-0.9393900E+00 -0.9764539E-14
-0.9388800E+00 -0.9951667E-14
-0.9383700E+00 -0.1014233E-13
-0.9378600E+00 -0.1033659E-13
-0.9373500E+00 -0.1053451E-13
-0.9368400E+00 -0.1073617E-13
-0.9363300E+00 -0.1094163E-13
-0.9358200E+00 -0.1115096E-13
-0.9353100E+00 -0.1136423E-13
-0.9348000E+00 -0.1158153E-13
-0.9342900E+00 -0.1180292E-13
-0.9337800E+00 -0.1202847E-13
-0.9332700E+00 -0.1225828E-13
-0.9327600E+00 -0.1249240E-13
-0.9322500E+00 -0.1273093E-13
-0.9317400E+00 -0.1297395E-13
-0.9312300E+00 -0.1322153E-13
-0.9307200E+00 -0.1347377E-13
-0.9302100E+00 -0.1373075E-13
-0.9297000E+00 -0.1399256E-13
-0.9291900E+00 -0.1425928E-13
-0.9286800E+00 -0.1453101E-13
-0.9281700E+00 -0.1480784E-13
-0.9276600E+00 -0.1508986E-13
-0.9271500E+00 -0.1537718E-13
-0.9266400E+00 -0.1566988E-13
-0.9261300E+00 -0.1596807E-13
-0.9256200E+00 -0.1627185E-13
-0.9251100E+00 -0.1658132E-13
-0.9246000E+00 -0.1689659E-13
-0.9240900E+00 -0.1721776E-13
-0.9235800E+00 -0.1754494E-13
-0.9230700E+00 -0.1787824E-13
-0.9225600E+00 -0.1821778E-13
-0.9220500E+00 -0.1856368E-13
-0.9215400E+00 -0.1891603E-13
-0.9210300E+00 -0.1927498E-13
-0.9205200E+00 -0.1964063E-13
-0.9200100E+00 -0.2001312E-13
-0.9195000E+00 -0.2039256E-13
-0.9189900E+00 -0.2077908E-13
-0.9184800E+00 -0.2117282E-13
-0.9179700E+00 -0.2157390E-13
-0.9174600E+00 -0.2198247E-13
-0.9169500E+00 -0.2239866E-13
-0.9164400E+00 -0.2282260E-13
-0.9159300E+00 -0.2325444E-13
-0.9154200E+00 -0.2369434E-13
-0.9149100E+00 -0.2414242E-13
-0.9144000E+00 -0.2459885E-13
-0.9138900E+00 -0.2506377E-13
-0.9133800E+00 -0.2553735E-13
-0.9128700E+00 -0.2601974E-13
-0.9123600E+00 -0.2651110E-13
-0.9118500E+00 -0.2701159E-13
-0.9113400E+00 -0.2752139E-13
-0.9108300E+00 -0.2804067E-13
-0.9103200E+00 -0.2856959E-13
-0.9098100E+00 -0.2910834E-13
-0.9093000E+00 -0.2965709E-13
-0.9087900E+00 -0.3021602E-13
-0.9082800E+00 -0.3078533E-13
-0.9077700E+00 -0.3136520E-13
-0.9072600E+00 -0.3195582E-13
-0.9067500E+00 -0.3255740E-13
-0.9062400E+00 -0.3317012E-13
-0.9057300E+00 -0.3379419E-13
-0.9052200E+00 -0.3442983E-13
-0.9047100E+00 -0.3507723E-13
-0.9042000E+00 -0.3573662E-13
-0.9036900E+00 -0.3640821E-13
-0.9031800E+00 -0.3709222E-13
-0.9026700E+00 -0.3778888E-13
-0.9021600E+00 -0.3849842E-13
-0.9016500E+00 -0.3922108E-13
-0.9011400E+00 -0.3995709E-13
-0.9006300E+00 -0.4070670E-13
-0.9001200E+00 -0.4147015E-13
-0.8996100E+00 -0.4224770E-13
-0.8991000E+00 -0.4303960E-13
-0.8985900E+00 -0.4384611E-13
-0.8980800E+00 -0.4466750E-13
-0.8975700E+00 -0.4550404E-13
-0.8970600E+00 -0.4635600E-13
-0.8965500E+00 -0.4722367E-13
-0.8960400E+00 -0.4810731E-13
-0.8955300E+00 -0.4900724E-13
-0.8950200E+00 -0.4992374E-13
-0.8945100E+00 -0.5085710E-13
-0.8940000E+00 -0.5180765E-13
-0.8934900E+00 -0.5277568E-13
-0.8929800E+00 -0.5376151E-13
-0.8924700E+00 -0.5476547E-13
-0.8919600E+00 -0.5578788E-13
-0.8914500E+00 -0.5682908E-13
-0.8909400E+00 -0.5788940E-13
-0.8904300E+00 -0.5896919E-13
-0.8899200E+00 -0.6006881E-13
-0.8894100E+00 -0.6118860E-13
-0.8889000E+00 -0.6232895E-13
-0.8883900E+00 -0.6349021E-13
-0.8878800E+00 -0.6467277E-13
-0.8873700E+00 -0.6587700E-13
-0.8868600E+00 -0.6710331E-13
-0.8863500E+00 -0.6835208E-13
-0.8858400E+00 -0.6962372E-13
-0.8853300E+00 -0.7091865E-13
-0.8848200E+00 -0.7223729E-13
-0.8843100E+00 -0.7358004E-13
-0.8838000E+00 -0.7494737E-13
-0.8832900E+00 -0.7633969E-13
-0.8827800E+00 -0.7775748E-13
-0.8822700E+00 -0.7920117E-13
-0.8817600E+00 -0.8067124E-13
-0.8812500E+00 -0.8216817E-13
-0.8807400E+00 -0.8369242E-13
-0.8802300E+00 -0.8524449E-13
-0.8797200E+00 -0.8682490E-13
-0.8792100E+00 -0.8843413E-13
-0.8787000E+00 -0.9007271E-13
-0.8781900E+00 -0.9174116E-13
-0.8776800E+00 -0.9344003E-13
-0.8771700E+00 -0.9516985E-13
-0.8766600E+00 -0.9693118E-13
-0.8761500E+00 -0.9872460E-13
-0.8756400E+00 -0.1005507E-12
-0.8751300E+00 -0.1024100E-12
-0.8746200E+00 -0.1043031E-12
-0.8741100E+00 -0.1062307E-12
-0.8736000E+00 -0.1081933E-12
-0.8730900E+00 -0.1101916E-12
-0.8725800E+00 -0.1122262E-12
-0.8720700E+00 -0.1142978E-12
-0.8715600E+00 -0.1164070E-12
-0.8710500E+00 -0.1185545E-12
-0.8705400E+00 -0.1207409E-12
-0.8700300E+00 -0.1229671E-12
-0.8695200E+00 -0.1252336E-12
-0.8690100E+00 -0.1275412E-12
-0.8685000E+00 -0.1298907E-12
-0.8679900E+00 -0.1322827E-12
-0.8674800E+00 -0.1347181E-12
-0.8669700E+00 -0.1371976E-12
-0.8664600E+00 -0.1397220E-12
-0.8659500E+00 -0.1422921E-12
-0.8654400E+00 -0.1449086E-12
-0.8649300E+00 -0.1475725E-12
-0.8644200E+00 -0.1502846E-12
-0.8639100E+00 -0.1530458E-12
-0.8634000E+00 -0.1558568E-12
-0.8628900E+00 -0.1587186E-12
-0.8623800E+00 -0.1616321E-12
-0.8618700E+00 -0.1645983E-12
-0.8613600E+00 -0.1676179E-12
-0.8608500E+00 -0.1706921E-12
-0.8603400E+00 -0.1738218E-12
-0.8598300E+00 -0.1770079E-12
-0.8593200E+00 -0.1802514E-12
-0.8588100E+00 -0.1835534E-12
-0.8583000E+00 -0.1869149E-12
-0.8577900E+00 -0.1903370E-12
-0.8572800E+00 -0.1938206E-12
-0.8567700E+00 -0.1973670E-12
-0.8562600E+00 -0.2009773E-12
-0.8557500E+00 -0.2046524E-12
-0.8552400E+00 -0.2083937E-12
-0.8547300E+00 -0.2122022E-12
-0.8542200E+00 -0.2160792E-12
-0.8537100E+00 -0.2200259E-12
-0.8532000E+00 -0.2240434E-12
-0.8526900E+00 -0.2281331E-12
-0.8521800E+00 -0.2322963E-12
-0.8516700E+00 -0.2365341E-12
-0.8511600E+00 -0.2408480E-12
-0.8506500E+00 -0.2452393E-12
-0.8501400E+00 -0.2497093E-12
-0.8496300E+00 -0.2542594E-12
-0.8491200E+00 -0.2588912E-12
-0.8486100E+00 -0.2636058E-12
-0.8481000E+00 -0.2684050E-12
-0.8475900E+00 -0.2732900E-12
-0.8470800E+00 -0.2782625E-12
-0.8465700E+00 -0.2833240E-12
-0.8460600E+00 -0.2884760E-12
-0.8455500E+00 -0.2937202E-12
-0.8450400E+00 -0.2990580E-12
-0.8445300E+00 -0.3044913E-12
-0.8440200E+00 -0.3100217E-12
-0.8435100E+00 -0.3156508E-12
-0.8430000E+00 -0.3213804E-12
-0.8424900E+00 -0.3272123E-12
-0.8419800E+00 -0.3331483E-12
-0.8414700E+00 -0.3391901E-12
-0.8409600E+00 -0.3453397E-12
-0.8404500E+00 -0.3515989E-12
-0.8399400E+00 -0.3579696E-12
-0.8394300E+00 -0.3644539E-12
-0.8389200E+00 -0.3710536E-12
-0.8384100E+00 -0.3777709E-12
-0.8379000E+00 -0.3846077E-12
-0.8373900E+00 -0.3915662E-12
-0.8368800E+00 -0.3986484E-12
-0.8363700E+00 -0.4058566E-12
-0.8358600E+00 -0.4131930E-12
-0.8353500E+00 -0.4206597E-12
-0.8348400E+00 -0.4282592E-12
-0.8343300E+00 -0.4359936E-12
-0.8338200E+00 -0.4438653E-12
-0.8333100E+00 -0.4518767E-12
-0.8328000E+00 -0.4600303E-12
-0.8322900E+00 -0.4683286E-12
-0.8317800E+00 -0.4767740E-12
-0.8312700E+00 -0.4853691E-12
-0.8307600E+00 -0.4941166E-12
-0.8302500E+00 -0.5030190E-12
-0.8297400E+00 -0.5120791E-12
-0.8292300E+00 -0.5212997E-12
-0.8287200E+00 -0.5306836E-12
-0.8282100E+00 -0.5402334E-12
-0.8277000E+00 -0.5499523E-12
-0.8271900E+00 -0.5598430E-12
-0.8266800E+00 -0.5699085E-12
-0.8261700E+00 -0.5801520E-12
-0.8256600E+00 -0.5905765E-12
-0.8251500E+00 -0.6011851E-12
-0.8246400E+00 -0.6119811E-12
-0.8241300E+00 -0.6229676E-12
-0.8236200E+00 -0.6341479E-12
-0.8231100E+00 -0.6455255E-12
-0.8226000E+00 -0.6571037E-12
-0.8220900E+00 -0.6688861E-12
-0.8215800E+00 -0.6808761E-12
-0.8210700E+00 -0.6930773E-12
-0.8205600E+00 -0.7054935E-12
-0.8200500E+00 -0.7181283E-12
-0.8195400E+00 -0.7309855E-12
-0.8190300E+00 -0.7440689E-12
-0.8185200E+00 -0.7573825E-12
-0.8180100E+00 -0.7709302E-12
-0.8175000E+00 -0.7847161E-12
-0.8169900E+00 -0.7987443E-12
-0.8164800E+00 -0.8130189E-12
-0.8159700E+00 -0.8275443E-12
-0.8154600E+00 -0.8423247E-12
-0.8149500E+00 -0.8573646E-12
-0.8144400E+00 -0.8726684E-12
-0.8139300E+00 -0.8882407E-12
-0.8134200E+00 -0.9040861E-12
-0.8129100E+00 -0.9202092E-12
-0.8124000E+00 -0.9366149E-12
-0.8118900E+00 -0.9533081E-12
-0.8113800E+00 -0.9702936E-12
-0.8108700E+00 -0.9875766E-12
-0.8103600E+00 -0.1005162E-11
-0.8098500E+00 -0.1023055E-11
-0.8093400E+00 -0.1041261E-11
-0.8088300E+00 -0.1059786E-11
-0.8083200E+00 -0.1078634E-11
-0.8078100E+00 -0.1097812E-11
-0.8073000E+00 -0.1117325E-11
-0.8067900E+00 -0.1137178E-11
-0.8062800E+00 -0.1157379E-11
-0.8057700E+00 -0.1177931E-11
-0.8052600E+00 -0.1198843E-11
-0.8047500E+00 -0.1220119E-11
-0.8042400E+00 -0.1241766E-11
-0.8037300E+00 -0.1263791E-11
-0.8032200E+00 -0.1286199E-11
-0.8027100E+00 -0.1308998E-11
-0.8022000E+00 -0.1332194E-11
-0.8016900E+00 -0.1355793E-11
-0.8011800E+00 -0.1379804E-11
-0.8006700E+00 -0.1404232E-11
-0.8001600E+00 -0.1429085E-11
-0.7996500E+00 -0.1454370E-11
-0.7991400E+00 -0.1480095E-11
-0.7986300E+00 -0.1506267E-11
-0.7981200E+00 -0.1532893E-11
-0.7976100E+00 -0.1559982E-11
-0.7971000E+00 -0.1587541E-11
-0.7965900E+00 -0.1615579E-11
-0.7960800E+00 -0.1644102E-11
-0.7955700E+00 -0.1673121E-11
-0.7950600E+00 -0.1702643E-11
-0.7945500E+00 -0.1732677E-11
-0.7940400E+00 -0.1763231E-11
-0.7935300E+00 -0.1794314E-11
-0.7930200E+00 -0.1825935E-11
-0.7925100E+00 -0.1858105E-11
-0.7920000E+00 -0.1890830E-11
-0.7914900E+00 -0.1924122E-11
-0.7909800E+00 -0.1957990E-11
-0.7904700E+00 -0.1992443E-11
-0.7899600E+00 -0.2027492E-11
-0.7894500E+00 -0.2063147E-11
-0.7889400E+00 -0.2099417E-11
-0.7884300E+00 -0.2136313E-11
-0.7879200E+00 -0.2173847E-11
-0.7874100E+00 -0.2212028E-11
-0.7869000E+00 -0.2250867E-11
-0.7863900E+00 -0.2290377E-11
-0.7858800E+00 -0.2330567E-11
-0.7853700E+00 -0.2371450E-11
-0.7848600E+00 -0.2413038E-11
-0.7843500E+00 -0.2455342E-11
-0.7838400E+00 -0.2498374E-11
-0.7833300E+00 -0.2542147E-11
-0.7828200E+00 -0.2586673E-11
-0.7823100E+00 -0.2631965E-11
-0.7818000E+00 -0.2678036E-11
-0.7812900E+00 -0.2724899E-11
-0.7807800E+00 -0.2772568E-11
-0.7802700E+00 -0.2821055E-11
-0.7797600E+00 -0.2870376E-11
-0.7792500E+00 -0.2920543E-11
-0.7787400E+00 -0.2971571E-11
-0.7782300E+00 -0.3023474E-11
-0.7777200E+00 -0.3076268E-11
-0.7772100E+00 -0.3129968E-11
-0.7767000E+00 -0.3184587E-11
-0.7761900E+00 -0.3240143E-11
-0.7756800E+00 -0.3296650E-11
-0.7751700E+00 -0.3354124E-11
-0.7746600E+00 -0.3412583E-11
-0.7741500E+00 -0.3472042E-11
-0.7736400E+00 -0.3532518E-11
-0.7731300E+00 -0.3594029E-11
-0.7726200E+00 -0.3656591E-11
-0.7721100E+00 -0.3720222E-11
-0.7716000E+00 -0.3784941E-11
-0.7710900E+00 -0.3850765E-11
-0.7705800E+00 -0.3917713E-11
-0.7700700E+00 -0.3985803E-11
-0.7695600E+00 -0.4055056E-11
-0.7690500E+00 -0.4125490E-11
-0.7685400E+00 -0.4197125E-11
-0.7680300E+00 -0.4269981E-11
-0.7675200E+00 -0.4344079E-11
-0.7670100E+00 -0.4419439E-11
-0.7665000E+00 -0.4496083E-11
-0.7659900E+00 -0.4574031E-11
-0.7654800E+00 -0.4653306E-11
-0.7649700E+00 -0.4733931E-11
-0.7644600E+00 -0.4815926E-11
-0.7639500E+00 -0.4899316E-11
-0.7634400E+00 -0.4984123E-11
-0.7629300E+00 -0.5070372E-11
-0.7624200E+00 -0.5158085E-11
-0.7619100E+00 -0.5247288E-11
-0.7614000E+00 -0.5338006E-11
-0.7608900E+00 -0.5430263E-11
-0.7603800E+00 -0.5524085E-11
-0.7598700E+00 -0.5619499E-11
-0.7593600E+00 -0.5716530E-11
-0.7588500E+00 -0.5815206E-11
-0.7583400E+00 -0.5915554E-11
-0.7578300E+00 -0.6017601E-11
-0.7573200E+00 -0.6121376E-11
-0.7568100E+00 -0.6226907E-11
-0.7563000E+00 -0.6334224E-11
-0.7557900E+00 -0.6443357E-11
-0.7552800E+00 -0.6554334E-11
-0.7547700E+00 -0.6667188E-11
-0.7542600E+00 -0.6781948E-11
-0.7537500E+00 -0.6898647E-11
-0.7532400E+00 -0.7017317E-11
-0.7527300E+00 -0.7137990E-11
-0.7522200E+00 -0.7260700E-11
-0.7517100E+00 -0.7385480E-11
-0.7512000E+00 -0.7512365E-11
-0.7506900E+00 -0.7641389E-11
-0.7501800E+00 -0.7772588E-11
-0.7496700E+00 -0.7905998E-11
-0.7491600E+00 -0.8041655E-11
-0.7486500E+00 -0.8179596E-11
-0.7481400E+00 -0.8319859E-11
-0.7476300E+00 -0.8462482E-11
-0.7471200E+00 -0.8607504E-11
-0.7466100E+00 -0.8754965E-11
-0.7461000E+00 -0.8904905E-11
-0.7455900E+00 -0.9057365E-11
-0.7450800E+00 -0.9212387E-11
-0.7445700E+00 -0.9370013E-11
-0.7440600E+00 -0.9530285E-11
-0.7435500E+00 -0.9693246E-11
-0.7430400E+00 -0.9858943E-11
-0.7425300E+00 -0.1002742E-10
-0.7420200E+00 -0.1019872E-10
-0.7415100E+00 -0.1037289E-10
-0.7410000E+00 -0.1054998E-10
-0.7404900E+00 -0.1073004E-10
-0.7399800E+00 -0.1091311E-10
-0.7394700E+00 -0.1109924E-10
-0.7389600E+00 -0.1128849E-10
-0.7384500E+00 -0.1148091E-10
-0.7379400E+00 -0.1167654E-10
-0.7374300E+00 -0.1187544E-10
-0.7369200E+00 -0.1207767E-10
-0.7364100E+00 -0.1228328E-10
-0.7359000E+00 -0.1249232E-10
-0.7353900E+00 -0.1270484E-10
-0.7348800E+00 -0.1292092E-10
-0.7343700E+00 -0.1314060E-10
-0.7338600E+00 -0.1336395E-10
-0.7333500E+00 -0.1359101E-10
-0.7328400E+00 -0.1382187E-10
-0.7323300E+00 -0.1405657E-10
-0.7318200E+00 -0.1429518E-10
-0.7313100E+00 -0.1453776E-10
-0.7308000E+00 -0.1478438E-10
-0.7302900E+00 -0.1503510E-10
-0.7297800E+00 -0.1529000E-10
-0.7292700E+00 -0.1554913E-10
-0.7287600E+00 -0.1581257E-10
-0.7282500E+00 -0.1608039E-10
-0.7277400E+00 -0.1635266E-10
-0.7272300E+00 -0.1662945E-10
-0.7267200E+00 -0.1691084E-10
-0.7262100E+00 -0.1719689E-10
-0.7257000E+00 -0.1748770E-10
-0.7251900E+00 -0.1778332E-10
-0.7246800E+00 -0.1808385E-10
-0.7241700E+00 -0.1838936E-10
-0.7236600E+00 -0.1869993E-10
-0.7231500E+00 -0.1901564E-10
-0.7226400E+00 -0.1933658E-10
-0.7221300E+00 -0.1966283E-10
-0.7216200E+00 -0.1999448E-10
-0.7211100E+00 -0.2033162E-10
-0.7206000E+00 -0.2067433E-10
-0.7200900E+00 -0.2102271E-10
-0.7195800E+00 -0.2137684E-10
-0.7190700E+00 -0.2173682E-10
-0.7185600E+00 -0.2210274E-10
-0.7180500E+00 -0.2247471E-10
-0.7175400E+00 -0.2285281E-10
-0.7170300E+00 -0.2323715E-10
-0.7165200E+00 -0.2362783E-10
-0.7160100E+00 -0.2402495E-10
-0.7155000E+00 -0.2442861E-10
-0.7149900E+00 -0.2483892E-10
-0.7144800E+00 -0.2525599E-10
-0.7139700E+00 -0.2567993E-10
-0.7134600E+00 -0.2611084E-10
-0.7129500E+00 -0.2654885E-10
-0.7124400E+00 -0.2699405E-10
-0.7119300E+00 -0.2744658E-10
-0.7114200E+00 -0.2790655E-10
-0.7109100E+00 -0.2837407E-10
-0.7104000E+00 -0.2884928E-10
-0.7098900E+00 -0.2933228E-10
-0.7093800E+00 -0.2982322E-10
-0.7088700E+00 -0.3032221E-10
-0.7083600E+00 -0.3082938E-10
-0.7078500E+00 -0.3134487E-10
-0.7073400E+00 -0.3186881E-10
-0.7068300E+00 -0.3240134E-10
-0.7063200E+00 -0.3294259E-10
-0.7058100E+00 -0.3349270E-10
-0.7053000E+00 -0.3405182E-10
-0.7047900E+00 -0.3462009E-10
-0.7042800E+00 -0.3519765E-10
-0.7037700E+00 -0.3578466E-10
-0.7032600E+00 -0.3638126E-10
-0.7027500E+00 -0.3698762E-10
-0.7022400E+00 -0.3760388E-10
-0.7017300E+00 -0.3823020E-10
-0.7012200E+00 -0.3886675E-10
-0.7007100E+00 -0.3951369E-10
-0.7002000E+00 -0.4017119E-10
-0.6996900E+00 -0.4083940E-10
-0.6991800E+00 -0.4151851E-10
-0.6986700E+00 -0.4220869E-10
-0.6981600E+00 -0.4291011E-10
-0.6976500E+00 -0.4362296E-10
-0.6971400E+00 -0.4434741E-10
-0.6966300E+00 -0.4508365E-10
-0.6961200E+00 -0.4583187E-10
-0.6956100E+00 -0.4659226E-10
-0.6951000E+00 -0.4736501E-10
-0.6945900E+00 -0.4815032E-10
-0.6940800E+00 -0.4894839E-10
-0.6935700E+00 -0.4975942E-10
-0.6930600E+00 -0.5058362E-10
-0.6925500E+00 -0.5142120E-10
-0.6920400E+00 -0.5227237E-10
-0.6915300E+00 -0.5313735E-10
-0.6910200E+00 -0.5401636E-10
-0.6905100E+00 -0.5490961E-10