-0.1200000E+01 -0.1173780E-36
-0.1199490E+01 -0.1208689E-36
-0.1198980E+01 -0.1243597E-36
-0.1198470E+01 -0.1278506E-36
-0.1197960E+01 -0.1313414E-36
-0.1197450E+01 -0.1348323E-36
-0.1196940E+01 -0.1383231E-36
-0.1196430E+01 -0.1418139E-36
-0.1195920E+01 -0.1453048E-36
-0.1195410E+01 -0.1487956E-36
-0.1194900E+01 -0.1522865E-36
-0.1194390E+01 -0.1557773E-36
-0.1193880E+01 -0.1592682E-36
-0.1193370E+01 -0.1627590E-36
-0.1192860E+01 -0.1662499E-36
-0.1192350E+01 -0.1697407E-36
-0.1191840E+01 -0.1732316E-36
-0.1191330E+01 -0.1767224E-36
-0.1190820E+01 -0.1802133E-36
-0.1190310E+01 -0.1837041E-36
-0.1189800E+01 -0.1871950E-36
-0.1189290E+01 -0.1906858E-36
-0.1188780E+01 -0.1941767E-36
-0.1188270E+01 -0.1976675E-36
-0.1187760E+01 -0.2011583E-36
-0.1187250E+01 -0.2046492E-36
-0.1186740E+01 -0.2081400E-36
-0.1186230E+01 -0.2116309E-36
-0.1185720E+01 -0.2151217E-36
-0.1185210E+01 -0.2186126E-36
-0.1184700E+01 -0.2217097E-36
-0.1184190E+01 -0.2241781E-36
-0.1183680E+01 -0.2259542E-36
-0.1183170E+01 -0.2271447E-36
-0.1182660E+01 -0.2276937E-36
-0.1182150E+01 -0.2275514E-36
-0.1181640E+01 -0.2276617E-36
-0.1181130E+01 -0.2280726E-36
-0.1180620E+01 -0.2288427E-36
-0.1180110E+01 -0.2300411E-36
-0.1179600E+01 -0.2317440E-36
-0.1179090E+01 -0.2340335E-36
-0.1178580E+01 -0.2369963E-36
-0.1178070E+01 -0.2407215E-36
-0.1177560E+01 -0.2452991E-36
-0.1177050E+01 -0.2508176E-36
-0.1176540E+01 -0.2576335E-36
-0.1176030E+01 -0.2657484E-36
-0.1175520E+01 -0.2751649E-36
-0.1175010E+01 -0.2858852E-36
-0.1174500E+01 -0.2979116E-36
-0.1173990E+01 -0.3112461E-36
-0.1173480E+01 -0.3240189E-36
-0.1172970E+01 -0.3361178E-36
-0.1172460E+01 -0.3474528E-36
-0.1171950E+01 -0.3579568E-36
-0.1171440E+01 -0.3675856E-36
-0.1170930E+01 -0.3763069E-36
-0.1170420E+01 -0.3803668E-36
-0.1169910E+01 -0.3793241E-36
-0.1169400E+01 -0.3730025E-36
-0.1168890E+01 -0.3613308E-36
-0.1168380E+01 -0.3479357E-36
-0.1167870E+01 -0.3327802E-36
-0.1167360E+01 -0.3158361E-36
-0.1166850E+01 -0.2970854E-36
-0.1166340E+01 -0.2765202E-36
-0.1165830E+01 -0.2610771E-36
-0.1165320E+01 -0.2514593E-36
-0.1164810E+01 -0.2483863E-36
-0.1164300E+01 -0.2521381E-36
-0.1163790E+01 -0.2627648E-36
-0.1163280E+01 -0.2837564E-36
-0.1162770E+01 -0.3127709E-36
-0.1162260E+01 -0.3495422E-36
-0.1161750E+01 -0.3934773E-36
-0.1161240E+01 -0.4406852E-36
-0.1160730E+01 -0.4923729E-36
-0.1160220E+01 -0.5470141E-36
-0.1159710E+01 -0.6001428E-36
-0.1159200E+01 -0.6517611E-36
-0.1158690E+01 -0.7018650E-36
-0.1158180E+01 -0.7526369E-36
-0.1157670E+01 -0.8024213E-36
-0.1157160E+01 -0.8512367E-36
-0.1156650E+01 -0.8990913E-36
-0.1156140E+01 -0.9455314E-36
-0.1155630E+01 -0.9905572E-36
-0.1155120E+01 -0.1031781E-35
-0.1154610E+01 -0.1069519E-35
-0.1154100E+01 -0.1102544E-35
-0.1153590E+01 -0.1130860E-35
-0.1153080E+01 -0.1154352E-35
-0.1152570E+01 -0.1173719E-35
-0.1152060E+01 -0.1188851E-35
-0.1151550E+01 -0.1199665E-35
-0.1151040E+01 -0.1210609E-35
-0.1150530E+01 -0.1223353E-35
-0.1150020E+01 -0.1240361E-35
-0.1149510E+01 -0.1265852E-35
-0.1149000E+01 -0.1300476E-35
-0.1148490E+01 -0.1345005E-35
-0.1147980E+01 -0.1398830E-35
-0.1147470E+01 -0.1458263E-35
-0.1146960E+01 -0.1523614E-35
-0.1146450E+01 -0.1597494E-35
-0.1145940E+01 -0.1680164E-35
-0.1145430E+01 -0.1771727E-35
-0.1144920E+01 -0.1872115E-35
-0.1144410E+01 -0.1979015E-35
-0.1143900E+01 -0.2092336E-35
-0.1143390E+01 -0.2211943E-35
-0.1142880E+01 -0.2337653E-35
-0.1142370E+01 -0.2469244E-35
-0.1141860E+01 -0.2603038E-35
-0.1141350E+01 -0.2738544E-35
-0.1140840E+01 -0.2875549E-35
-0.1140330E+01 -0.3016844E-35
-0.1139820E+01 -0.3166097E-35
-0.1139310E+01 -0.3323447E-35
-0.1138800E+01 -0.3486368E-35
-0.1138290E+01 -0.3654544E-35
-0.1137780E+01 -0.3827505E-35
-0.1137270E+01 -0.4004808E-35
-0.1136760E+01 -0.4185981E-35
-0.1136250E+01 -0.4370564E-35
-0.1135740E+01 -0.4558036E-35
-0.1135230E+01 -0.4744990E-35
-0.1134720E+01 -0.4930938E-35
-0.1134210E+01 -0.5117329E-35
-0.1133700E+01 -0.5304264E-35
-0.1133190E+01 -0.5496096E-35
-0.1132680E+01 -0.5693903E-35
-0.1132170E+01 -0.5898319E-35
-0.1131660E+01 -0.6109675E-35
-0.1131150E+01 -0.6324393E-35
-0.1130640E+01 -0.6542773E-35
-0.1130130E+01 -0.6768820E-35
-0.1129620E+01 -0.7002431E-35
-0.1129110E+01 -0.7243290E-35
-0.1128600E+01 -0.7488346E-35
-0.1128090E+01 -0.7736379E-35
-0.1127580E+01 -0.7985371E-35
-0.1127070E+01 -0.8234867E-35
-0.1126560E+01 -0.8484616E-35
-0.1126050E+01 -0.8734683E-35
-0.1125540E+01 -0.8985368E-35
-0.1125030E+01 -0.9237125E-35
-0.1124520E+01 -0.9494331E-35
-0.1124010E+01 -0.9758580E-35
-0.1123500E+01 -0.1003157E-34
-0.1122990E+01 -0.1031475E-34
-0.1122480E+01 -0.1060737E-34
-0.1121970E+01 -0.1091379E-34
-0.1121460E+01 -0.1123418E-34
-0.1120950E+01 -0.1157155E-34
-0.1120440E+01 -0.1192636E-34
-0.1119930E+01 -0.1229862E-34
-0.1119420E+01 -0.1268790E-34
-0.1118910E+01 -0.1309338E-34
-0.1118400E+01 -0.1351542E-34
-0.1117890E+01 -0.1395025E-34
-0.1117380E+01 -0.1439746E-34
-0.1116870E+01 -0.1485653E-34
-0.1116360E+01 -0.1532925E-34
-0.1115850E+01 -0.1581210E-34
-0.1115340E+01 -0.1630407E-34
-0.1114830E+01 -0.1680453E-34
-0.1114320E+01 -0.1731330E-34
-0.1113810E+01 -0.1783066E-34
-0.1113300E+01 -0.1835708E-34
-0.1112790E+01 -0.1889424E-34
-0.1112280E+01 -0.1944400E-34
-0.1111770E+01 -0.2001099E-34
-0.1111260E+01 -0.2059407E-34
-0.1110750E+01 -0.2119198E-34
-0.1110240E+01 -0.2180739E-34
-0.1109730E+01 -0.2244119E-34
-0.1109220E+01 -0.2309793E-34
-0.1108710E+01 -0.2377970E-34
-0.1108200E+01 -0.2448834E-34
-0.1107690E+01 -0.2522533E-34
-0.1107180E+01 -0.2599174E-34
-0.1106670E+01 -0.2678651E-34
-0.1106160E+01 -0.2760927E-34
-0.1105650E+01 -0.2845934E-34
-0.1105140E+01 -0.2933579E-34
-0.1104630E+01 -0.3023910E-34
-0.1104120E+01 -0.3116541E-34
-0.1103610E+01 -0.3211472E-34
-0.1103100E+01 -0.3308721E-34
-0.1102590E+01 -0.3408334E-34
-0.1102080E+01 -0.3510382E-34
-0.1101570E+01 -0.3614960E-34
-0.1101060E+01 -0.3722192E-34
-0.1100550E+01 -0.3832028E-34
-0.1100040E+01 -0.3944730E-34
-0.1099530E+01 -0.4060341E-34
-0.1099020E+01 -0.4178920E-34
-0.1098510E+01 -0.4300541E-34
-0.1098000E+01 -0.4425553E-34
-0.1097490E+01 -0.4554158E-34
-0.1096980E+01 -0.4686565E-34
-0.1096470E+01 -0.4822989E-34
-0.1095960E+01 -0.4963649E-34
-0.1095450E+01 -0.5109231E-34
-0.1094940E+01 -0.5259883E-34
-0.1094430E+01 -0.5415699E-34
-0.1093920E+01 -0.5576890E-34
-0.1093410E+01 -0.5743134E-34
-0.1092900E+01 -0.5914642E-34
-0.1092390E+01 -0.6091605E-34
-0.1091880E+01 -0.6274197E-34
-0.1091370E+01 -0.6462361E-34
-0.1090860E+01 -0.6656166E-34
-0.1090350E+01 -0.6855678E-34
-0.1089840E+01 -0.7060524E-34
-0.1089330E+01 -0.7270675E-34
-0.1088820E+01 -0.7486142E-34
-0.1088310E+01 -0.7707005E-34
-0.1087800E+01 -0.7933410E-34
-0.1087290E+01 -0.8165578E-34
-0.1086780E+01 -0.8403716E-34
-0.1086270E+01 -0.8648507E-34
-0.1085760E+01 -0.8900421E-34
-0.1085250E+01 -0.9159459E-34
-0.1084740E+01 -0.9426189E-34
-0.1084230E+01 -0.9701014E-34
-0.1083720E+01 -0.9984541E-34
-0.1083210E+01 -0.1027723E-33
-0.1082700E+01 -0.1057950E-33
-0.1082190E+01 -0.1089172E-33
-0.1081680E+01 -0.1121419E-33
-0.1081170E+01 -0.1154716E-33
-0.1080660E+01 -0.1189079E-33
-0.1080150E+01 -0.1224519E-33
-0.1079640E+01 -0.1261028E-33
-0.1079130E+01 -0.1298615E-33
-0.1078620E+01 -0.1337264E-33
-0.1078110E+01 -0.1377009E-33
-0.1077600E+01 -0.1417869E-33
-0.1077090E+01 -0.1459830E-33
-0.1076580E+01 -0.1502905E-33
-0.1076070E+01 -0.1547115E-33
-0.1075560E+01 -0.1592500E-33
-0.1075050E+01 -0.1639091E-33
-0.1074540E+01 -0.1686930E-33
-0.1074030E+01 -0.1736064E-33
-0.1073520E+01 -0.1786553E-33
-0.1073010E+01 -0.1838459E-33
-0.1072500E+01 -0.1891882E-33
-0.1071990E+01 -0.1946874E-33
-0.1071480E+01 -0.2003485E-33
-0.1070970E+01 -0.2061768E-33
-0.1070460E+01 -0.2121821E-33
-0.1069950E+01 -0.2183712E-33
-0.1069440E+01 -0.2247505E-33
-0.1068930E+01 -0.2313275E-33
-0.1068420E+01 -0.2381078E-33
-0.1067910E+01 -0.2450963E-33
-0.1067400E+01 -0.2522974E-33
-0.1066890E+01 -0.2597149E-33
-0.1066380E+01 -0.2673527E-33
-0.1065870E+01 -0.2752142E-33
-0.1065360E+01 -0.2833022E-33
-0.1064850E+01 -0.2916197E-33
-0.1064340E+01 -0.3001737E-33
-0.1063830E+01 -0.3089717E-33
-0.1063320E+01 -0.3180209E-33
-0.1062810E+01 -0.3273273E-33
-0.1062300E+01 -0.3368994E-33
-0.1061790E+01 -0.3467456E-33
-0.1061280E+01 -0.3568746E-33
-0.1060770E+01 -0.3672953E-33
-0.1060260E+01 -0.3780170E-33
-0.1059750E+01 -0.3890492E-33
-0.1059240E+01 -0.4004016E-33
-0.1058730E+01 -0.4120840E-33
-0.1058220E+01 -0.4241063E-33
-0.1057710E+01 -0.4364786E-33
-0.1057200E+01 -0.4492111E-33
-0.1056690E+01 -0.4623140E-33
-0.1056180E+01 -0.4757942E-33
-0.1055670E+01 -0.4896625E-33
-0.1055160E+01 -0.5039284E-33
-0.1054650E+01 -0.5186034E-33
-0.1054140E+01 -0.5336989E-33
-0.1053630E+01 -0.5492272E-33
-0.1053120E+01 -0.5652011E-33
-0.1052610E+01 -0.5816341E-33
-0.1052100E+01 -0.5985432E-33
-0.1051590E+01 -0.6159421E-33
-0.1051080E+01 -0.6338453E-33
-0.1050570E+01 -0.6522671E-33
-0.1050060E+01 -0.6712223E-33
-0.1049550E+01 -0.6907264E-33
-0.1049040E+01 -0.7107944E-33
-0.1048530E+01 -0.7314445E-33
-0.1048020E+01 -0.7526923E-33
-0.1047510E+01 -0.7745588E-33
-0.1047000E+01 -0.7970624E-33
-0.1046490E+01 -0.8202223E-33
-0.1045980E+01 -0.8440560E-33
-0.1045470E+01 -0.8685814E-33
-0.1044960E+01 -0.8938192E-33
-0.1044450E+01 -0.9197889E-33
-0.1043940E+01 -0.9465078E-33
-0.1043430E+01 -0.9739974E-33
-0.1042920E+01 -0.1002280E-32
-0.1042410E+01 -0.1031378E-32
-0.1041900E+01 -0.1061314E-32
-0.1041390E+01 -0.1092113E-32
-0.1040880E+01 -0.1123796E-32
-0.1040370E+01 -0.1156389E-32
-0.1039860E+01 -0.1189915E-32
-0.1039350E+01 -0.1224399E-32
-0.1038840E+01 -0.1259868E-32
-0.1038330E+01 -0.1296352E-32
-0.1037820E+01 -0.1333879E-32
-0.1037310E+01 -0.1372480E-32
-0.1036800E+01 -0.1412187E-32
-0.1036290E+01 -0.1453032E-32
-0.1035780E+01 -0.1495049E-32
-0.1035270E+01 -0.1538272E-32
-0.1034760E+01 -0.1582737E-32
-0.1034250E+01 -0.1628482E-32
-0.1033740E+01 -0.1675544E-32
-0.1033230E+01 -0.1723963E-32
-0.1032720E+01 -0.1773779E-32
-0.1032210E+01 -0.1825028E-32
-0.1031700E+01 -0.1877752E-32
-0.1031190E+01 -0.1931994E-32
-0.1030680E+01 -0.1987793E-32
-0.1030170E+01 -0.2045195E-32
-0.1029660E+01 -0.2104243E-32
-0.1029150E+01 -0.2164985E-32
-0.1028640E+01 -0.2227468E-32
-0.1028130E+01 -0.2291742E-32
-0.1027620E+01 -0.2357857E-32
-0.1027110E+01 -0.2425867E-32
-0.1026600E+01 -0.2495825E-32
-0.1026090E+01 -0.2567788E-32
-0.1025580E+01 -0.2641811E-32
-0.1025070E+01 -0.2717955E-32
-0.1024560E+01 -0.2796280E-32
-0.1024050E+01 -0.2876848E-32
-0.1023540E+01 -0.2959722E-32
-0.1023030E+01 -0.3044969E-32
-0.1022520E+01 -0.3132655E-32
-0.1022010E+01 -0.3222848E-32
-0.1021500E+01 -0.3315621E-32
-0.1020990E+01 -0.3411045E-32
-0.1020480E+01 -0.3509197E-32
-0.1019970E+01 -0.3610152E-32
-0.1019460E+01 -0.3713991E-32
-0.1018950E+01 -0.3820794E-32
-0.1018440E+01 -0.3930648E-32
-0.1017930E+01 -0.4043640E-32
-0.1017420E+01 -0.4159856E-32
-0.1016910E+01 -0.4279390E-32
-0.1016400E+01 -0.4402337E-32
-0.1015890E+01 -0.4528792E-32
-0.1015380E+01 -0.4658857E-32
-0.1014870E+01 -0.4792635E-32
-0.1014360E+01 -0.4930230E-32
-0.1013850E+01 -0.5071751E-32
-0.1013340E+01 -0.5217308E-32
-0.1012830E+01 -0.5367016E-32
-0.1012320E+01 -0.5520991E-32
-0.1011810E+01 -0.5679354E-32
-0.1011300E+01 -0.5842229E-32
-0.1010790E+01 -0.6009741E-32
-0.1010280E+01 -0.6182022E-32
-0.1009770E+01 -0.6359206E-32
-0.1009260E+01 -0.6541430E-32
-0.1008750E+01 -0.6728837E-32
-0.1008240E+01 -0.6921574E-32
-0.1007730E+01 -0.7119789E-32
-0.1007220E+01 -0.7323638E-32
-0.1006710E+01 -0.7533283E-32
-0.1006200E+01 -0.7748885E-32
-0.1005690E+01 -0.7970615E-32
-0.1005180E+01 -0.8198646E-32
-0.1004670E+01 -0.8433158E-32
-0.1004160E+01 -0.8674335E-32
-0.1003650E+01 -0.8922367E-32
-0.1003140E+01 -0.9177449E-32
-0.1002630E+01 -0.9439779E-32
-0.1002120E+01 -0.9709564E-32
-0.1001610E+01 -0.9987014E-32
-0.1001100E+01 -0.1027234E-31
-0.1000590E+01 -0.1056577E-31
-0.1000080E+01 -0.1086753E-31
-0.9995700E+00 -0.1117786E-31
-0.9990600E+00 -0.1149698E-31
-0.9985500E+00 -0.1182516E-31
-0.9980400E+00 -0.1216263E-31
-0.9975300E+00 -0.1250967E-31
-0.9970200E+00 -0.1286655E-31
-0.9965100E+00 -0.1323352E-31
-0.9960000E+00 -0.1361089E-31
-0.9954900E+00 -0.1399895E-31
-0.9949800E+00 -0.1439799E-31
-0.9944700E+00 -0.1480832E-31
-0.9939600E+00 -0.1523026E-31
-0.9934500E+00 -0.1566415E-31
-0.9929400E+00 -0.1611031E-31
-0.9924300E+00 -0.1656910E-31
-0.9919200E+00 -0.1704087E-31
-0.9914100E+00 -0.1752598E-31
-0.9909000E+00 -0.1802481E-31
-0.9903900E+00 -0.1853775E-31
-0.9898800E+00 -0.1906519E-31
-0.9893700E+00 -0.1960754E-31
-0.9888600E+00 -0.2016522E-31
-0.9883500E+00 -0.2073865E-31
-0.9878400E+00 -0.2132828E-31
-0.9873300E+00 -0.2193455E-31
-0.9868200E+00 -0.2255794E-31
-0.9863100E+00 -0.2319891E-31
-0.9858000E+00 -0.2385797E-31
-0.9852900E+00 -0.2453561E-31
-0.9847800E+00 -0.2523236E-31
-0.9842700E+00 -0.2594875E-31
-0.9837600E+00 -0.2668534E-31
-0.9832500E+00 -0.2744268E-31
-0.9827400E+00 -0.2822137E-31
-0.9822300E+00 -0.2902200E-31
-0.9817200E+00 -0.2984518E-31
-0.9812100E+00 -0.3069157E-31
-0.9807000E+00 -0.3156179E-31
-0.9801900E+00 -0.3245654E-31
-0.9796800E+00 -0.3337648E-31
-0.9791700E+00 -0.3432234E-31
-0.9786600E+00 -0.3529483E-31
-0.9781500E+00 -0.3629470E-31
-0.9776400E+00 -0.3732272E-31
-0.9771300E+00 -0.3837967E-31
-0.9766200E+00 -0.3946635E-31
-0.9761100E+00 -0.4058359E-31
-0.9756000E+00 -0.4173225E-31
-0.9750900E+00 -0.4291319E-31
-0.9745800E+00 -0.4412731E-31
-0.9740700E+00 -0.4537553E-31
-0.9735600E+00 -0.4665881E-31
-0.9730500E+00 -0.4797812E-31
-0.9725400E+00 -0.4933445E-31
-0.9720300E+00 -0.5072885E-31
-0.9715200E+00 -0.5216237E-31
-0.9710100E+00 -0.5363611E-31
-0.9705000E+00 -0.5515119E-31
-0.9699900E+00 -0.5670877E-31
-0.9694800E+00 -0.5831003E-31
-0.9689700E+00 -0.5995619E-31
-0.9684600E+00 -0.6164851E-31
-0.9679500E+00 -0.6338828E-31
-0.9674400E+00 -0.6517682E-31
-0.9669300E+00 -0.6701550E-31
-0.9664200E+00 -0.6890570E-31
-0.9659100E+00 -0.7084887E-31
-0.9654000E+00 -0.7284647E-31
-0.9648900E+00 -0.7490003E-31
-0.9643800E+00 -0.7701108E-31
-0.9638700E+00 -0.7918123E-31
-0.9633600E+00 -0.8141212E-31
-0.9628500E+00 -0.8370542E-31
-0.9623400E+00 -0.8606287E-31
-0.9618300E+00 -0.8848624E-31
-0.9613200E+00 -0.9097736E-31
-0.9608100E+00 -0.9353811E-31
-0.9603000E+00 -0.9617042E-31
-0.9597900E+00 -0.9887627E-31
-0.9592800E+00 -0.1016577E-30
-0.9587700E+00 -0.1045168E-30
-0.9582600E+00 -0.1074558E-30
-0.9577500E+00 -0.1104768E-30
-0.9572400E+00 -0.1135821E-30
-0.9567300E+00 -0.1167742E-30
-0.9562200E+00 -0.1200553E-30
-0.9557100E+00 -0.1234280E-30
-0.9552000E+00 -0.1268947E-30
-0.9546900E+00 -0.1304582E-30
-0.9541800E+00 -0.1341211E-30
-0.9536700E+00 -0.1378861E-30
-0.9531600E+00 -0.1417561E-30
-0.9526500E+00 -0.1457340E-30
-0.9521400E+00 -0.1498227E-30
-0.9516300E+00 -0.1540254E-30
-0.9511200E+00 -0.1583451E-30
-0.9506100E+00 -0.1627851E-30
-0.9501000E+00 -0.1673487E-30
-0.9495900E+00 -0.1720394E-30
-0.9490800E+00 -0.1768606E-30
-0.9485700E+00 -0.1818160E-30
-0.9480600E+00 -0.1869092E-30
-0.9475500E+00 -0.1921441E-30
-0.9470400E+00 -0.1975245E-30
-0.9465300E+00 -0.2030546E-30
-0.9460200E+00 -0.2087384E-30
-0.9455100E+00 -0.2145802E-30
-0.9450000E+00 -0.2205843E-30
-0.9444900E+00 -0.2267553E-30
-0.9439800E+00 -0.2330976E-30
-0.9434700E+00 -0.2396162E-30
-0.9429600E+00 -0.2463158E-30
-0.9424500E+00 -0.2532014E-30
-0.9419400E+00 -0.2602781E-30
-0.9414300E+00 -0.2675513E-30
-0.9409200E+00 -0.2750263E-30
-0.9404100E+00 -0.2827087E-30
-0.9399000E+00 -0.2906042E-30
-0.9393900E+00 -0.2987186E-30
-0.9388800E+00 -0.3070580E-30
-0.9383700E+00 -0.3156286E-30
-0.9378600E+00 -0.3244366E-30
-0.9373500E+00 -0.3334888E-30
-0.9368400E+00 -0.3427916E-30
-0.9363300E+00 -0.3523522E-30
-0.9358200E+00 -0.3621774E-30
-0.9353100E+00 -0.3722747E-30
-0.9348000E+00 -0.3826514E-30
-0.9342900E+00 -0.3933154E-30
-0.9337800E+00 -0.4042743E-30
-0.9332700E+00 -0.4155365E-30
-0.9327600E+00 -0.4271101E-30
-0.9322500E+00 -0.4390039E-30
-0.9317400E+00 -0.4512265E-30
-0.9312300E+00 -0.4637870E-30
-0.9307200E+00 -0.4766947E-30
-0.9302100E+00 -0.4899590E-30
-0.9297000E+00 -0.5035899E-30
-0.9291900E+00 -0.5175974E-30
-0.9286800E+00 -0.5319917E-30
-0.9281700E+00 -0.5467836E-30
-0.9276600E+00 -0.5619838E-30
-0.9271500E+00 -0.5776036E-30
-0.9266400E+00 -0.5936545E-30
-0.9261300E+00 -0.6101482E-30
-0.9256200E+00 -0.6270969E-30
-0.9251100E+00 -0.6445132E-30
-0.9246000E+00 -0.6624096E-30
-0.9240900E+00 -0.6807994E-30
-0.9235800E+00 -0.6996961E-30
-0.9230700E+00 -0.7191135E-30
-0.9225600E+00 -0.7390659E-30
-0.9220500E+00 -0.7595680E-30
-0.9215400E+00 -0.7806347E-30
-0.9210300E+00 -0.8022815E-30
-0.9205200E+00 -0.8245242E-30
-0.9200100E+00 -0.8473792E-30
-0.9195000E+00 -0.8708631E-30
-0.9189900E+00 -0.8949932E-30
-0.9184800E+00 -0.9197871E-30
-0.9179700E+00 -0.9452630E-30
-0.9174600E+00 -0.9714394E-30
-0.9169500E+00 -0.9983356E-30
-0.9164400E+00 -0.1025971E-29
-0.9159300E+00 -0.1054366E-29
-0.9154200E+00 -0.1083541E-29
-0.9149100E+00 -0.1113518E-29
-0.9144000E+00 -0.1144318E-29
-0.9138900E+00 -0.1175964E-29
-0.9133800E+00 -0.1208479E-29
-0.9128700E+00 -0.1241886E-29
-0.9123600E+00 -0.1276210E-29
-0.9118500E+00 -0.1311476E-29
-0.9113400E+00 -0.1347710E-29
-0.9108300E+00 -0.1384937E-29
-0.9103200E+00 -0.1423186E-29
-0.9098100E+00 -0.1462483E-29
-0.9093000E+00 -0.1502857E-29
-0.9087900E+00 -0.1544338E-29
-0.9082800E+00 -0.1586956E-29
-0.9077700E+00 -0.1630741E-29
-0.9072600E+00 -0.1675726E-29
-0.9067500E+00 -0.1721942E-29
-0.9062400E+00 -0.1769425E-29
-0.9057300E+00 -0.1818207E-29
-0.9052200E+00 -0.1868324E-29
-0.9047100E+00 -0.1919813E-29
-0.9042000E+00 -0.1972710E-29
-0.9036900E+00 -0.2027054E-29
-0.9031800E+00 -0.2082885E-29
-0.9026700E+00 -0.2140242E-29
-0.9021600E+00 -0.2199167E-29
-0.9016500E+00 -0.2259703E-29
-0.9011400E+00 -0.2321892E-29
-0.9006300E+00 -0.2385781E-29
-0.9001200E+00 -0.2451416E-29
-0.8996100E+00 -0.2518842E-29
-0.8991000E+00 -0.2588110E-29
-0.8985900E+00 -0.2659268E-29
-0.8980800E+00 -0.2732369E-29
-0.8975700E+00 -0.2807465E-29
-0.8970600E+00 -0.2884610E-29
-0.8965500E+00 -0.2963859E-29
-0.8960400E+00 -0.3045269E-29
-0.8955300E+00 -0.3128899E-29
-0.8950200E+00 -0.3214810E-29
-0.8945100E+00 -0.3303062E-29
-0.8940000E+00 -0.3393719E-29
-0.8934900E+00 -0.3486846E-29
-0.8929800E+00 -0.3582510E-29
-0.8924700E+00 -0.3680780E-29
-0.8919600E+00 -0.3781726E-29
-0.8914500E+00 -0.3885420E-29
-0.8909400E+00 -0.3991936E-29
-0.8904300E+00 -0.4101352E-29
-0.8899200E+00 -0.4213744E-29
-0.8894100E+00 -0.4329194E-29
-0.8889000E+00 -0.4447783E-29
-0.8883900E+00 -0.4569597E-29
-0.8878800E+00 -0.4694723E-29
-0.8873700E+00 -0.4823249E-29
-0.8868600E+00 -0.4955268E-29
-0.8863500E+00 -0.5090874E-29
-0.8858400E+00 -0.5230163E-29
-0.8853300E+00 -0.5373235E-29
-0.8848200E+00 -0.5520192E-29
-0.8843100E+00 -0.5671138E-29
-0.8838000E+00 -0.5826181E-29
-0.8832900E+00 -0.5985431E-29
-0.8827800E+00 -0.6149001E-29
-0.8822700E+00 -0.6317009E-29
-0.8817600E+00 -0.6489573E-29
-0.8812500E+00 -0.6666816E-29
-0.8807400E+00 -0.6848865E-29
-0.8802300E+00 -0.7035849E-29
-0.8797200E+00 -0.7227900E-29
-0.8792100E+00 -0.7425157E-29
-0.8787000E+00 -0.7627758E-29
-0.8781900E+00 -0.7835849E-29
-0.8776800E+00 -0.8049577E-29
-0.8771700E+00 -0.8269095E-29
-0.8766600E+00 -0.8494557E-29
-0.8761500E+00 -0.8726125E-29
-0.8756400E+00 -0.8963964E-29
-0.8751300E+00 -0.9208241E-29
-0.8746200E+00 -0.9459130E-29
-0.8741100E+00 -0.9716809E-29
-0.8736000E+00 -0.9981458E-29
-0.8730900E+00 -0.1025326E-28
-0.8725800E+00 -0.1053242E-28
-0.8720700E+00 -0.1081912E-28
-0.8715600E+00 -0.1111356E-28
-0.8710500E+00 -0.1141596E-28
-0.8705400E+00 -0.1172651E-28
-0.8700300E+00 -0.1204545E-28
-0.8695200E+00 -0.1237298E-28
-0.8690100E+00 -0.1270933E-28
-0.8685000E+00 -0.1305474E-28
-0.8679900E+00 -0.1340944E-28
-0.8674800E+00 -0.1377369E-28
-0.8669700E+00 -0.1414772E-28
-0.8664600E+00 -0.1453179E-28
-0.8659500E+00 -0.1492618E-28
-0.8654400E+00 -0.1533116E-28
-0.8649300E+00 -0.1574701E-28
-0.8644200E+00 -0.1617401E-28
-0.8639100E+00 -0.1661248E-28
-0.8634000E+00 -0.1706273E-28
-0.8628900E+00 -0.1752507E-28
-0.8623800E+00 -0.1799985E-28
-0.8618700E+00 -0.1848742E-28
-0.8613600E+00 -0.1898813E-28
-0.8608500E+00 -0.1950237E-28
-0.8603400E+00 -0.2003052E-28
-0.8598300E+00 -0.2057299E-28
-0.8593200E+00 -0.2113019E-28
-0.8588100E+00 -0.2170256E-28
-0.8583000E+00 -0.2229054E-28
-0.8577900E+00 -0.2289458E-28
-0.8572800E+00 -0.2351515E-28
-0.8567700E+00 -0.2415272E-28
-0.8562600E+00 -0.2480775E-28
-0.8557500E+00 -0.2548074E-28
-0.8552400E+00 -0.2617215E-28
-0.8547300E+00 -0.2688245E-28
-0.8542200E+00 -0.2761211E-28
-0.8537100E+00 -0.2836158E-28
-0.8532000E+00 -0.2913129E-28
-0.8526900E+00 -0.2992166E-28
-0.8521800E+00 -0.3073308E-28
-0.8516700E+00 -0.3156592E-28
-0.8511600E+00 -0.3242054E-28
-0.8506500E+00 -0.3329728E-28
-0.8501400E+00 -0.3419644E-28
-0.8496300E+00 -0.3511834E-28
-0.8491200E+00 -0.3606328E-28
-0.8486100E+00 -0.3703159E-28
-0.8481000E+00 -0.3802359E-28
-0.8475900E+00 -0.3903968E-28
-0.8470800E+00 -0.4008031E-28
-0.8465700E+00 -0.4114600E-28
-0.8460600E+00 -0.4223740E-28
-0.8455500E+00 -0.4335532E-28
-0.8450400E+00 -0.4450069E-28
-0.8445300E+00 -0.4567467E-28
-0.8440200E+00 -0.4687865E-28
-0.8435100E+00 -0.4811424E-28
-0.8430000E+00 -0.4938334E-28
-0.8424900E+00 -0.5068811E-28
-0.8419800E+00 -0.5203100E-28
-0.8414700E+00 -0.5341472E-28
-0.8409600E+00 -0.5484224E-28
-0.8404500E+00 -0.5631674E-28
-0.8399400E+00 -0.5784156E-28
-0.8394300E+00 -0.5942010E-28
-0.8389200E+00 -0.6105577E-28
-0.8384100E+00 -0.6275185E-28
-0.8379000E+00 -0.6451136E-28
-0.8373900E+00 -0.6633690E-28
-0.8368800E+00 -0.6823051E-28
-0.8363700E+00 -0.7019347E-28
-0.8358600E+00 -0.7222613E-28
-0.8353500E+00 -0.7432774E-28
-0.8348400E+00 -0.7649626E-28
-0.8343300E+00 -0.7872824E-28
-0.8338200E+00 -0.8101868E-28
-0.8333100E+00 -0.8336102E-28
-0.8328000E+00 -0.8574704E-28
-0.8322900E+00 -0.8816701E-28
-0.8317800E+00 -0.9060979E-28
-0.8312700E+00 -0.9306310E-28
-0.8307600E+00 -0.9551385E-28
-0.8302500E+00 -0.9794864E-28
-0.8297400E+00 -0.1003543E-27
-0.8292300E+00 -0.1027188E-27
-0.8287200E+00 -0.1050315E-27
-0.8282100E+00 -0.1072850E-27
-0.8277000E+00 -0.1094752E-27
-0.8271900E+00 -0.1116031E-27
-0.8266800E+00 -0.1136754E-27
-0.8261700E+00 -0.1157057E-27
-0.8256600E+00 -0.1177156E-27
-0.8251500E+00 -0.1197354E-27
-0.8246400E+00 -0.1218049E-27
-0.8241300E+00 -0.1239734E-27
-0.8236200E+00 -0.1263002E-27
-0.8231100E+00 -0.1288536E-27
-0.8226000E+00 -0.1317107E-27
-0.8220900E+00 -0.1349553E-27
-0.8215800E+00 -0.1386759E-27
-0.8210700E+00 -0.1429633E-27
-0.8205600E+00 -0.1479066E-27
-0.8200500E+00 -0.1535899E-27
-0.8195400E+00 -0.1600868E-27
-0.8190300E+00 -0.1674557E-27
-0.8185200E+00 -0.1757340E-27
-0.8180100E+00 -0.1849321E-27
-0.8175000E+00 -0.1950279E-27
-0.8169900E+00 -0.2059604E-27
-0.8164800E+00 -0.2176253E-27
-0.8159700E+00 -0.2298701E-27
-0.8154600E+00 -0.2424911E-27
-0.8149500E+00 -0.2552319E-27
-0.8144400E+00 -0.2677838E-27
-0.8139300E+00 -0.2797886E-27
-0.8134200E+00 -0.2908440E-27
-0.8129100E+00 -0.3005125E-27
-0.8124000E+00 -0.3083327E-27
-0.8118900E+00 -0.3138349E-27
-0.8113800E+00 -0.3165598E-27
-0.8108700E+00 -0.3160800E-27
-0.8103600E+00 -0.3120255E-27
-0.8098500E+00 -0.3041109E-27
-0.8093400E+00 -0.2921643E-27
-0.8088300E+00 -0.2761583E-27
-0.8083200E+00 -0.2562391E-27
-0.8078100E+00 -0.2327554E-27
-0.8073000E+00 -0.2062832E-27
-0.8067900E+00 -0.1776466E-27
-0.8062800E+00 -0.1479314E-27
-0.8057700E+00 -0.1184903E-27
-0.8052600E+00 -0.9093756E-28
-0.8047500E+00 -0.6713195E-28
-0.8042400E+00 -0.4914530E-28
-0.8037300E+00 -0.3921616E-28
-0.8032200E+00 -0.3968743E-28
-0.8027100E+00 -0.5292746E-28
-0.8022000E+00 -0.8123498E-28
-0.8016900E+00 -0.1267289E-27
-0.8011800E+00 -0.1912245E-27
-0.8006700E+00 -0.2760993E-27
-0.8001600E+00 -0.3821520E-27
-0.7996500E+00 -0.5094590E-27
-0.7991400E+00 -0.6572350E-27
-0.7986300E+00 -0.8237033E-27
-0.7981200E+00 -0.1005985E-26
-0.7976100E+00 -0.1200010E-26
-0.7971000E+00 -0.1400472E-26
-0.7965900E+00 -0.1600812E-26
-0.7960800E+00 -0.1793264E-26
-0.7955700E+00 -0.1968957E-26
-0.7950600E+00 -0.2118081E-26
-0.7945500E+00 -0.2230121E-26
-0.7940400E+00 -0.2294172E-26
-0.7935300E+00 -0.2299316E-26
-0.7930200E+00 -0.2235081E-26
-0.7925100E+00 -0.2091959E-26
-0.7920000E+00 -0.1861973E-26
-0.7914900E+00 -0.1539297E-26
-0.7909800E+00 -0.1120882E-26
-0.7904700E+00 -0.6070903E-27
-0.7899600E+00 -0.2295848E-29
-0.7894500E+00  0.6845716E-27
-0.7889400E+00  0.1439578E-26
-0.7884300E+00  0.2243464E-26
-0.7879200E+00  0.3071487E-26
-0.7874100E+00  0.3893469E-26
-0.7869000E+00  0.4674073E-26
-0.7863900E+00  0.5373343E-26
-0.7858800E+00  0.5947542E-26
-0.7853700E+00  0.6350281E-26
-0.7848600E+00  0.6533962E-26
-0.7843500E+00  0.6451531E-26
-0.7838400E+00  0.6058501E-26
-0.7833300E+00  0.5315237E-26
-0.7828200E+00  0.4189421E-26
-0.7823100E+00  0.2658663E-26
-0.7818000E+00  0.7131295E-27
-0.7812900E+00 -0.1641873E-26
-0.7807800E+00 -0.4383504E-26
-0.7802700E+00 -0.7469309E-26
-0.7797600E+00 -0.1083558E-25
-0.7792500E+00 -0.1439633E-25
-0.7787400E+00 -0.1804299E-25
-0.7782300E+00 -0.2164500E-25
-0.7777200E+00 -0.2505138E-25
-0.7772100E+00 -0.2809345E-25
-0.7767000E+00 -0.3058868E-25
-0.7761900E+00 -0.3234581E-25
-0.7756800E+00 -0.3317112E-25
-0.7751700E+00 -0.3287593E-25
-0.7746600E+00 -0.3128510E-25
-0.7741500E+00 -0.2824639E-25
-0.7736400E+00 -0.2364044E-25
-0.7731300E+00 -0.1739110E-25
-0.7726200E+00 -0.9475655E-26
-0.7721100E+00  0.6543423E-28
-0.7716000E+00  0.1111972E-25
-0.7710900E+00  0.2349549E-25
-0.7705800E+00  0.3691653E-25
-0.7700700E+00  0.5101939E-25
-0.7695600E+00  0.6535387E-25
-0.7690500E+00  0.7938700E-25
-0.7685400E+00  0.9251109E-25
-0.7680300E+00  0.1040560E-24
-0.7675200E+00  0.1133063E-24
-0.7670100E+00  0.1195222E-24
-0.7665000E+00  0.1219658E-24
-0.7659900E+00  0.1199309E-24
-0.7654800E+00  0.1127762E-24
-0.7649700E+00  0.9996167E-25
-0.7644600E+00  0.8108597E-25
-0.7639500E+00  0.5592466E-25
-0.7634400E+00  0.2446716E-25
-0.7629300E+00 -0.1304909E-25
-0.7624200E+00 -0.5610912E-25
-0.7619100E+00 -0.1038973E-24
-0.7614000E+00 -0.1552830E-24
-0.7608900E+00 -0.2088163E-24
-0.7603800E+00 -0.2627358E-24
-0.7598700E+00 -0.3149909E-24
-0.7593600E+00 -0.3632780E-24
-0.7588500E+00 -0.4050934E-24
-0.7583400E+00 -0.4378014E-24
-0.7578300E+00 -0.4587192E-24
-0.7573200E+00 -0.4652157E-24
-0.7568100E+00 -0.4548239E-24
-0.7563000E+00 -0.4253636E-24
-0.7557900E+00 -0.3750714E-24
-0.7552800E+00 -0.3027340E-24
-0.7547700E+00 -0.2078189E-24
-0.7542600E+00 -0.9059886E-25
-0.7537500E+00  0.4773784E-25
-0.7532400E+00  0.2049968E-24
-0.7527300E+00  0.3779129E-24
-0.7522200E+00  0.5621195E-24
-0.7517100E+00  0.7521556E-24
-0.7512000E+00  0.9415183E-24
-0.7506900E+00  0.1122764E-23
-0.7501800E+00  0.1287662E-23
-0.7496700E+00  0.1427400E-23
-0.7491600E+00  0.1532849E-23
-0.7486500E+00  0.1594868E-23
-0.7481400E+00  0.1604668E-23
-0.7476300E+00  0.1554200E-23
-0.7471200E+00  0.1436585E-23
-0.7466100E+00  0.1246548E-23
-0.7461000E+00  0.9808620E-24
-0.7455900E+00  0.6387626E-24
-0.7450800E+00  0.2223393E-24
-0.7445700E+00 -0.2631386E-24
-0.7440600E+00 -0.8089709E-24
-0.7435500E+00 -0.1402875E-23
-0.7430400E+00 -0.2028954E-23
-0.7425300E+00 -0.2667799E-23
-0.7420200E+00 -0.3296747E-23
-0.7415100E+00 -0.3890303E-23
-0.7410000E+00 -0.4420728E-23
-0.7404900E+00 -0.4858797E-23
-0.7399800E+00 -0.5174735E-23
-0.7394700E+00 -0.5339280E-23
-0.7389600E+00 -0.5324899E-23
-0.7384500E+00 -0.5107091E-23
-0.7379400E+00 -0.4665757E-23
-0.7374300E+00 -0.3986586E-23
-0.7369200E+00 -0.3062411E-23
-0.7364100E+00 -0.1894468E-23
-0.7359000E+00 -0.4935054E-24
-0.7353900E+00  0.1119324E-23
-0.7348800E+00  0.2911859E-23
-0.7343700E+00  0.4840662E-23
-0.7338600E+00  0.6851162E-23
-0.7333500E+00  0.8878237E-23
-0.7328400E+00  0.1084729E-22
-0.7323300E+00  0.1267585E-22
-0.7318200E+00  0.1427565E-22
-0.7313100E+00  0.1555525E-22
-0.7308000E+00  0.1642313E-22
-0.7302900E+00  0.1679119E-22
-0.7297800E+00  0.1657853E-22
-0.7292700E+00  0.1571556E-22
-0.7287600E+00  0.1414815E-22
-0.7282500E+00  0.1184172E-22
-0.7277400E+00  0.8785153E-23
-0.7272300E+00  0.4994310E-23
-0.7267200E+00  0.5149587E-24
-0.7262100E+00 -0.4575060E-23
-0.7257000E+00 -0.1016461E-22
-0.7251900E+00 -0.1610915E-22
-0.7246800E+00 -0.2223194E-22
-0.7241700E+00 -0.2832652E-22
-0.7236600E+00 -0.3416079E-22
-0.7231500E+00 -0.3948248E-22
-0.7226400E+00 -0.4402617E-22
-0.7221300E+00 -0.4752163E-22
-0.7216200E+00 -0.4970350E-22
-0.7211100E+00 -0.5032193E-22
-0.7206000E+00 -0.4915400E-22
-0.7200900E+00 -0.4601561E-22
-0.7195800E+00 -0.4077334E-22
-0.7190700E+00 -0.3335584E-22
-0.7185600E+00 -0.2376438E-22
-0.7180500E+00 -0.1208188E-22
-0.7175400E+00  0.1519987E-23
-0.7170300E+00  0.1677622E-22
-0.7165200E+00  0.3332681E-22
-0.7160100E+00  0.5071857E-22
-0.7155000E+00  0.6841059E-22
-0.7149900E+00  0.8578380E-22
-0.7144800E+00  0.1021546E-21
-0.7139700E+00  0.1167925E-21
-0.7134600E+00  0.1289420E-21
-0.7129500E+00  0.1378477E-21
-0.7124400E+00  0.1427827E-21
-0.7119300E+00  0.1430792E-21
-0.7114200E+00  0.1381608E-21
-0.7109100E+00  0.1275752E-21
-0.7104000E+00  0.1110255E-21
-0.7098900E+00  0.8840071E-22
-0.7093800E+00  0.5980175E-22
-0.7088700E+00  0.2556312E-22
-0.7083600E+00 -0.1373172E-22
-0.7078500E+00 -0.5724251E-22
-0.7073400E+00 -0.1038730E-21
-0.7068300E+00 -0.1522814E-21
-0.7063200E+00 -0.2009015E-21
-0.7058100E+00 -0.2479743E-21
-0.7053000E+00 -0.2915910E-21
-0.7047900E+00 -0.3297460E-21
-0.7042800E+00 -0.3604002E-21
-0.7037700E+00 -0.3815527E-21
-0.7032600E+00 -0.3913196E-21
-0.7027500E+00 -0.3880167E-21
-0.7022400E+00 -0.3702456E-21
-0.7017300E+00 -0.3369781E-21
-0.7012200E+00 -0.2876364E-21
-0.7007100E+00 -0.2221667E-21
-0.7002000E+00 -0.1411003E-21
-0.6996900E+00 -0.4560149E-22
-0.6991800E+00  0.6250416E-22
-0.6986700E+00  0.1807217E-21
-0.6981600E+00  0.3059031E-21
-0.6976500E+00  0.4342897E-21
-0.6971400E+00  0.5615812E-21
-0.6966300E+00  0.6830336E-21
-0.6961200E+00  0.7935839E-21
-0.6956100E+00  0.8879996E-21
-0.6951000E+00  0.9610528E-21
-0.6945900E+00  0.1007712E-20
-0.6940800E+00  0.1023347E-20
-0.6935700E+00  0.1003946E-20
-0.6930600E+00  0.9463259E-21
-0.6925500E+00  0.8483447E-21
-0.6920400E+00  0.7090896E-21
-0.6915300E+00  0.5290468E-21
-0.6910200E+00  0.3102355E-21
-0.6905100E+00  0.5630066E-22