-0.1200000E+01  0.0000000E+00
-0.1199490E+01  0.0000000E+00
-0.1198980E+01  0.0000000E+00
-0.1198470E+01  0.0000000E+00
-0.1197960E+01  0.0000000E+00
-0.1197450E+01  0.0000000E+00
-0.1196940E+01  0.0000000E+00
-0.1196430E+01  0.0000000E+00
-0.1195920E+01  0.0000000E+00
-0.1195410E+01  0.0000000E+00
-0.1194900E+01  0.0000000E+00
-0.1194390E+01  0.0000000E+00
-0.1193880E+01  0.0000000E+00
-0.1193370E+01  0.0000000E+00
-0.1192860E+01 -0.4626404E-37
-0.1192350E+01 -0.3445368E-36
-0.1191840E+01 -0.1872540E-35
-0.1191330E+01 -0.8594706E-35
-0.1190820E+01 -0.3487606E-34
-0.1190310E+01 -0.1277040E-33
-0.1189800E+01 -0.4279840E-33
-0.1189290E+01 -0.1327245E-32
-0.1188780E+01 -0.3841935E-32
-0.1188270E+01 -0.1045366E-31
-0.1187760E+01 -0.2688993E-31
-0.1187250E+01 -0.6569864E-31
-0.1186740E+01 -0.1530576E-30
-0.1186230E+01 -0.3410963E-30
-0.1185720E+01 -0.7290562E-30
-0.1185210E+01 -0.1497686E-29
-0.1184700E+01 -0.2961835E-29
-0.1184190E+01 -0.5645194E-29
-0.1183680E+01 -0.1037659E-28
-0.1183170E+01 -0.1839585E-28
-0.1182660E+01 -0.3143393E-28
-0.1182150E+01 -0.5168950E-28
-0.1181640E+01 -0.8155244E-28
-0.1181130E+01 -0.1228113E-27
-0.1180620E+01 -0.1749134E-27
-0.1180110E+01 -0.2316089E-27
-0.1179600E+01 -0.2749956E-27
-0.1179090E+01 -0.2655933E-27
-0.1178580E+01 -0.1266365E-27
-0.1178070E+01  0.2796538E-27
-0.1177560E+01  0.1186371E-26
-0.1177050E+01  0.2969357E-26
-0.1176540E+01  0.6209739E-26
-0.1176030E+01  0.1177200E-25
-0.1175520E+01  0.2089495E-25
-0.1175010E+01  0.3528756E-25
-0.1174500E+01  0.5721377E-25
-0.1173990E+01  0.8953777E-25
-0.1173480E+01  0.1356850E-24
-0.1172970E+01  0.1994519E-24
-0.1172460E+01  0.2845701E-24
-0.1171950E+01  0.3938970E-24
-0.1171440E+01  0.5280721E-24
-0.1170930E+01  0.6834368E-24
-0.1170420E+01  0.8489910E-24
-0.1169910E+01  0.1002138E-23
-0.1169400E+01  0.1102975E-23
-0.1168890E+01  0.1086949E-23
-0.1168380E+01  0.8557709E-24
-0.1167870E+01  0.2667073E-24
-0.1167360E+01 -0.8793706E-24
-0.1166850E+01 -0.2850367E-23
-0.1166340E+01 -0.5994383E-23
-0.1165830E+01 -0.1074805E-22
-0.1165320E+01 -0.1763870E-22
-0.1164810E+01 -0.2727628E-22
-0.1164300E+01 -0.4032948E-22
-0.1163790E+01 -0.5747960E-22
-0.1163280E+01 -0.7934400E-22
-0.1162770E+01 -0.1063602E-21
-0.1162260E+01 -0.1386210E-21
-0.1161750E+01 -0.1756507E-21
-0.1161240E+01 -0.2161133E-21
-0.1160730E+01 -0.2574481E-21
-0.1160220E+01 -0.2954272E-21
-0.1159710E+01 -0.3236419E-21
-0.1159200E+01 -0.3329297E-21
-0.1158690E+01 -0.3107660E-21
-0.1158180E+01 -0.2406615E-21
-0.1157670E+01 -0.1016228E-21
-0.1157160E+01  0.1322460E-21
-0.1156650E+01  0.4918969E-21
-0.1156140E+01  0.1013122E-20
-0.1155630E+01  0.1735816E-20
-0.1155120E+01  0.2702546E-20
-0.1154610E+01  0.3956241E-20
-0.1154100E+01  0.5536807E-20
-0.1153590E+01  0.7476470E-20
-0.1153080E+01  0.9793684E-20
-0.1152570E+01  0.1248549E-19
-0.1152060E+01  0.1551821E-19
-0.1151550E+01  0.1881665E-19
-0.1151040E+01  0.2225176E-19
-0.1150530E+01  0.2562732E-19
-0.1150020E+01  0.2866602E-19
-0.1149510E+01  0.3099567E-19
-0.1149000E+01  0.3213674E-19
-0.1148490E+01  0.3149216E-19
-0.1147980E+01  0.2834117E-19
-0.1147470E+01  0.2183884E-19
-0.1146960E+01  0.1102321E-19
-0.1146450E+01 -0.5167896E-20
-0.1145940E+01 -0.2786825E-19
-0.1145430E+01 -0.5824084E-19
-0.1144920E+01 -0.9742005E-19
-0.1144410E+01 -0.1464371E-18
-0.1143900E+01 -0.2061280E-18
-0.1143390E+01 -0.2770250E-18
-0.1142880E+01 -0.3592317E-18
-0.1142370E+01 -0.4522863E-18
-0.1141860E+01 -0.5550156E-18
-0.1141350E+01 -0.6653875E-18
-0.1140840E+01 -0.7803684E-18
-0.1140330E+01 -0.8957964E-18
-0.1139820E+01 -0.1006281E-17
-0.1139310E+01 -0.1105142E-17
-0.1138800E+01 -0.1184401E-17
-0.1138290E+01 -0.1234844E-17
-0.1137780E+01 -0.1246158E-17
-0.1137270E+01 -0.1207174E-17
-0.1136760E+01 -0.1106198E-17
-0.1136250E+01 -0.9314762E-18
-0.1135740E+01 -0.6717539E-18
-0.1135230E+01 -0.3169634E-18
-0.1134720E+01  0.1409940E-18
-0.1134210E+01  0.7073772E-18
-0.1133700E+01  0.1383676E-17
-0.1133190E+01  0.2166658E-17
-0.1132680E+01  0.3047435E-17
-0.1132170E+01  0.4010605E-17
-0.1131660E+01  0.5033523E-17
-0.1131150E+01  0.6085776E-17
-0.1130640E+01  0.7128922E-17
-0.1130130E+01  0.8116572E-17
-0.1129620E+01  0.8994873E-17
-0.1129110E+01  0.9703449E-17
-0.1128600E+01  0.1017686E-16
-0.1128090E+01  0.1034657E-16
-0.1127580E+01  0.1014352E-16
-0.1127070E+01  0.9501115E-17
-0.1126560E+01  0.8358791E-17
-0.1126050E+01  0.6665905E-17
-0.1125540E+01  0.4385905E-17
-0.1125030E+01  0.1500616E-17
-0.1124520E+01 -0.1985550E-17
-0.1124010E+01 -0.6041676E-17
-0.1123500E+01 -0.1060696E-16
-0.1122990E+01 -0.1558809E-16
-0.1122480E+01 -0.2085773E-16
-0.1121970E+01 -0.2625423E-16
-0.1121460E+01 -0.3158287E-16
-0.1120950E+01 -0.3661889E-16
-0.1120440E+01 -0.4111223E-16
-0.1119930E+01 -0.4479438E-16
-0.1119420E+01 -0.4738694E-16
-0.1118910E+01 -0.4861214E-16
-0.1118400E+01 -0.4820482E-16
-0.1117890E+01 -0.4592585E-16
-0.1117380E+01 -0.4157619E-16
-0.1116870E+01 -0.3501147E-16
-0.1116360E+01 -0.2615620E-16
-0.1115850E+01 -0.1501690E-16
-0.1115340E+01 -0.1693739E-17
-0.1114830E+01  0.1361056E-16
-0.1114320E+01  0.3058487E-16
-0.1113810E+01  0.4880782E-16
-0.1113300E+01  0.6775041E-16
-0.1112790E+01  0.8678375E-16
-0.1112280E+01  0.1051919E-15
-0.1111770E+01  0.1221905E-15
-0.1111260E+01  0.1369500E-15
-0.1110750E+01  0.1486243E-15
-0.1110240E+01  0.1563834E-15
-0.1109730E+01  0.1594493E-15
-0.1109220E+01  0.1571338E-15
-0.1108710E+01  0.1488773E-15
-0.1108200E+01  0.1342859E-15
-0.1107690E+01  0.1131665E-15
-0.1107180E+01  0.8555745E-16
-0.1106670E+01  0.5175173E-16
-0.1106160E+01  0.1231352E-16
-0.1105650E+01 -0.3191563E-16
-0.1105140E+01 -0.7982115E-16
-0.1104630E+01 -0.1300315E-15
-0.1104120E+01 -0.1809464E-15
-0.1103610E+01 -0.2307771E-15
-0.1103100E+01 -0.2775979E-15
-0.1102590E+01 -0.3194091E-15
-0.1102080E+01 -0.3542073E-15
-0.1101570E+01 -0.3800632E-15
-0.1101060E+01 -0.3952032E-15
-0.1100550E+01 -0.3980916E-15
-0.1100040E+01 -0.3875106E-15
-0.1099530E+01 -0.3626335E-15
-0.1099020E+01 -0.3230900E-15
-0.1098510E+01 -0.2690171E-15
-0.1098000E+01 -0.2010946E-15
-0.1097490E+01 -0.1205625E-15
-0.1096980E+01 -0.2921747E-16
-0.1096470E+01  0.7061301E-16
-0.1095960E+01  0.1761179E-15
-0.1095450E+01  0.2840726E-15
-0.1094940E+01  0.3909288E-15
-0.1094430E+01  0.4929233E-15
-0.1093920E+01  0.5862012E-15
-0.1093410E+01  0.6669510E-15
-0.1092900E+01  0.7315456E-15
-0.1092390E+01  0.7766847E-15
-0.1091880E+01  0.7995339E-15
-0.1091370E+01  0.7978535E-15
-0.1090860E+01  0.7701125E-15
-0.1090350E+01  0.7155824E-15
-0.1089840E+01  0.6344076E-15
-0.1089330E+01  0.5276458E-15
-0.1088820E+01  0.3972796E-15
-0.1088310E+01  0.2461936E-15
-0.1087800E+01  0.7812023E-16
-0.1087290E+01 -0.1024477E-15
-0.1086780E+01 -0.2903740E-15
-0.1086270E+01 -0.4800230E-15
-0.1085760E+01 -0.6654265E-15
-0.1085250E+01 -0.8404680E-15
-0.1084740E+01 -0.9990776E-15
-0.1084230E+01 -0.1135434E-14
-0.1083720E+01 -0.1244161E-14
-0.1083210E+01 -0.1320522E-14
-0.1082700E+01 -0.1360592E-14
-0.1082190E+01 -0.1361413E-14
-0.1081680E+01 -0.1321124E-14
-0.1081170E+01 -0.1239055E-14
-0.1080660E+01 -0.1115792E-14
-0.1080150E+01 -0.9532026E-15
-0.1079640E+01 -0.7544193E-15
-0.1079130E+01 -0.5237917E-15
-0.1078620E+01 -0.2667954E-15
-0.1078110E+01  0.1009281E-16
-0.1077600E+01  0.2995517E-15
-0.1077090E+01  0.5936018E-15
-0.1076580E+01  0.8838148E-15
-0.1076070E+01  0.1161541E-14
-0.1075560E+01  0.1418152E-14
-0.1075050E+01  0.1645285E-14
-0.1074540E+01  0.1835091E-14
-0.1074030E+01  0.1980478E-14
-0.1073520E+01  0.2075337E-14
-0.1073010E+01  0.2114755E-14
-0.1072500E+01  0.2095197E-14
-0.1071990E+01  0.2014667E-14
-0.1071480E+01  0.1872822E-14
-0.1070970E+01  0.1671059E-14
-0.1070460E+01  0.1412547E-14
-0.1069950E+01  0.1102221E-14
-0.1069440E+01  0.7467237E-15
-0.1068930E+01  0.3542941E-15
-0.1068420E+01 -0.6538845E-16
-0.1067910E+01 -0.5014133E-15
-0.1067400E+01 -0.9418924E-15
-0.1066890E+01 -0.1374257E-14
-0.1066380E+01 -0.1785590E-14
-0.1065870E+01 -0.2162989E-14
-0.1065360E+01 -0.2493950E-14
-0.1064850E+01 -0.2766760E-14
-0.1064340E+01 -0.2970888E-14
-0.1063830E+01 -0.3097367E-14
-0.1063320E+01 -0.3139145E-14
-0.1062810E+01 -0.3091398E-14
-0.1062300E+01 -0.2951790E-14
-0.1061790E+01 -0.2720669E-14
-0.1061280E+01 -0.2401186E-14
-0.1060770E+01 -0.1999332E-14
-0.1060260E+01 -0.1523881E-14
-0.1059750E+01 -0.9862377E-15
-0.1059240E+01 -0.4001961E-15
-0.1058730E+01  0.2184020E-15
-0.1058220E+01  0.8520877E-15
-0.1057710E+01  0.1482262E-14
-0.1057200E+01  0.2089753E-14
-0.1056690E+01  0.2655419E-14
-0.1056180E+01  0.3160770E-14
-0.1055670E+01  0.3588594E-14
-0.1055160E+01  0.3923569E-14
-0.1054650E+01  0.4152817E-14
-0.1054140E+01  0.4266406E-14
-0.1053630E+01  0.4257761E-14
-0.1053120E+01  0.4123969E-14
-0.1052610E+01  0.3865967E-14
-0.1052100E+01  0.3488607E-14
-0.1051590E+01  0.3000578E-14
-0.1051080E+01  0.2414202E-14
-0.1050570E+01  0.1745100E-14
-0.1050060E+01  0.1011737E-14
-0.1049550E+01  0.2348648E-15
-0.1049040E+01 -0.5631146E-15
-0.1048530E+01 -0.1358856E-14
-0.1048020E+01 -0.2128805E-14
-0.1047510E+01 -0.2849949E-14
-0.1047000E+01 -0.3500549E-14
-0.1046490E+01 -0.4060822E-14
-0.1045980E+01 -0.4513568E-14
-0.1045470E+01 -0.4844704E-14
-0.1044960E+01 -0.5043683E-14
-0.1044450E+01 -0.5103814E-14
-0.1043940E+01 -0.5022439E-14
-0.1043430E+01 -0.4800987E-14
-0.1042920E+01 -0.4444901E-14
-0.1042410E+01 -0.3963442E-14
-0.1041900E+01 -0.3369384E-14
-0.1041390E+01 -0.2678610E-14
-0.1040880E+01 -0.1909630E-14
-0.1040370E+01 -0.1083036E-14
-0.1039860E+01 -0.2209140E-15
-0.1039350E+01  0.6537658E-15
-0.1038840E+01  0.1517767E-14
-0.1038330E+01  0.2348192E-14
-0.1037820E+01  0.3123059E-14
-0.1037310E+01  0.3821844E-14
-0.1036800E+01  0.4425971E-14
-0.1036290E+01  0.4919248E-14
-0.1035780E+01  0.5288239E-14
-0.1035270E+01  0.5522568E-14
-0.1034760E+01  0.5615165E-14
-0.1034250E+01  0.5562428E-14
-0.1033740E+01  0.5364327E-14
-0.1033230E+01  0.5024435E-14
-0.1032720E+01  0.4549882E-14
-0.1032210E+01  0.3951247E-14
-0.1031700E+01  0.3242374E-14
-0.1031190E+01  0.2440114E-14
-0.1030680E+01  0.1563995E-14
-0.1030170E+01  0.6358251E-15
-0.1029660E+01 -0.3207844E-15
-0.1029150E+01 -0.1280952E-14
-0.1028640E+01 -0.2219124E-14
-0.1028130E+01 -0.3109725E-14
-0.1027620E+01 -0.3927838E-14
-0.1027110E+01 -0.4649915E-14
-0.1026600E+01 -0.5254488E-14
-0.1026090E+01 -0.5722854E-14
-0.1025580E+01 -0.6039729E-14
-0.1025070E+01 -0.6193821E-14
-0.1024560E+01 -0.6178314E-14
-0.1024050E+01 -0.5991233E-14
-0.1023540E+01 -0.5635665E-14
-0.1023030E+01 -0.5119825E-14
-0.1022520E+01 -0.4456940E-14
-0.1022010E+01 -0.3664970E-14
-0.1021500E+01 -0.2766134E-14
-0.1020990E+01 -0.1786281E-14
-0.1020480E+01 -0.7540983E-15
-0.1019970E+01  0.2997966E-15
-0.1019460E+01  0.1343870E-14
-0.1018950E+01  0.2346737E-14
-0.1018440E+01  0.3278246E-14
-0.1017930E+01  0.4110533E-14
-0.1017420E+01  0.4819003E-14
-0.1016910E+01  0.5383195E-14
-0.1016400E+01  0.5787497E-14
-0.1015890E+01  0.6021670E-14
-0.1015380E+01  0.6081164E-14
-0.1014870E+01  0.5967208E-14
-0.1014360E+01  0.5686675E-14
-0.1013850E+01  0.5251725E-14
-0.1013340E+01  0.4679238E-14
-0.1012830E+01  0.3990082E-14
-0.1012320E+01  0.3208230E-14
-0.1011810E+01  0.2359787E-14
-0.1011300E+01  0.1471961E-14
-0.1010790E+01  0.5720303E-15
-0.1010280E+01 -0.3136360E-15
-0.1009770E+01 -0.1160481E-14
-0.1009260E+01 -0.1946526E-14
-0.1008750E+01 -0.2652990E-14
-0.1008240E+01 -0.3264719E-14
-0.1007730E+01 -0.3770443E-14
-0.1007220E+01 -0.4162836E-14
-0.1006710E+01 -0.4438401E-14
-0.1006200E+01 -0.4597210E-14
-0.1005690E+01 -0.4642503E-14
-0.1005180E+01 -0.4580206E-14
-0.1004670E+01 -0.4418389E-14
-0.1004160E+01 -0.4166705E-14
-0.1003650E+01 -0.3835852E-14
-0.1003140E+01 -0.3437086E-14
-0.1002630E+01 -0.2981807E-14
-0.1002120E+01 -0.2481245E-14
-0.1001610E+01 -0.1946243E-14
-0.1001100E+01 -0.1387156E-14
-0.1000590E+01 -0.8138267E-15
-0.1000080E+01 -0.2356557E-15
-0.9995700E+00  0.3382861E-15
-0.9990600E+00  0.8991136E-15
-0.9985500E+00  0.1437988E-14
-0.9980400E+00  0.1946012E-14
-0.9975300E+00  0.2414175E-14
-0.9970200E+00  0.2833388E-14
-0.9965100E+00  0.3194599E-14
-0.9960000E+00  0.3489010E-14
-0.9954900E+00  0.3708376E-14
-0.9949800E+00  0.3845387E-14
-0.9944700E+00  0.3894097E-14
-0.9939600E+00  0.3850372E-14
-0.9934500E+00  0.3712330E-14
-0.9929400E+00  0.3480725E-14
-0.9924300E+00  0.3159242E-14
-0.9919200E+00  0.2754672E-14
-0.9914100E+00  0.2276937E-14
-0.9909000E+00  0.1738944E-14
-0.9903900E+00  0.1156266E-14
-0.9898800E+00  0.5466499E-15
-0.9893700E+00 -0.7063566E-16
-0.9888600E+00 -0.6755736E-15
-0.9883500E+00 -0.1248267E-14
-0.9878400E+00 -0.1769845E-14
-0.9873300E+00 -0.2223366E-14
-0.9868200E+00 -0.2594644E-14
-0.9863100E+00 -0.2872969E-14
-0.9858000E+00 -0.3051655E-14
-0.9852900E+00 -0.3128380E-14
-0.9847800E+00 -0.3105301E-14
-0.9842700E+00 -0.2988912E-14
-0.9837600E+00 -0.2789664E-14
-0.9832500E+00 -0.2521353E-14
-0.9827400E+00 -0.2200317E-14
-0.9822300E+00 -0.1844479E-14
-0.9817200E+00 -0.1472301E-14
-0.9812100E+00 -0.1101711E-14
-0.9807000E+00 -0.7490688E-15
-0.9801900E+00 -0.4282391E-15
-0.9796800E+00 -0.1498324E-15
-0.9791700E+00  0.7933693E-16
-0.9786600E+00  0.2565368E-15
-0.9781500E+00  0.3831273E-15
-0.9776400E+00  0.4642915E-15
-0.9771300E+00  0.5085036E-15
-0.9766200E+00  0.5267676E-15
-0.9761100E+00  0.5316781E-15
-0.9756000E+00  0.5363646E-15
-0.9750900E+00  0.5533931E-15
-0.9745800E+00  0.5937010E-15
-0.9740700E+00  0.6656397E-15
-0.9735600E+00  0.7741967E-15
-0.9730500E+00  0.9204531E-15
-0.9725400E+00  0.1101322E-14
-0.9720300E+00  0.1309590E-14
-0.9715200E+00  0.1534269E-14
-0.9710100E+00  0.1761240E-14
-0.9705000E+00  0.1974147E-14
-0.9699900E+00  0.2155494E-14
-0.9694800E+00  0.2287863E-14
-0.9689700E+00  0.2355181E-14
-0.9684600E+00  0.2343943E-14
-0.9679500E+00  0.2244310E-14
-0.9674400E+00  0.2050999E-14
-0.9669300E+00  0.1763901E-14
-0.9664200E+00  0.1388377E-14
-0.9659100E+00  0.9352052E-15
-0.9654000E+00  0.4201681E-15
-0.9648900E+00 -0.1366955E-15
-0.9643800E+00 -0.7121351E-15
-0.9638700E+00 -0.1280967E-14
-0.9633600E+00 -0.1817506E-14
-0.9628500E+00 -0.2297063E-14
-0.9623400E+00 -0.2697403E-14
-0.9618300E+00 -0.3000082E-14
-0.9613200E+00 -0.3191553E-14
-0.9608100E+00 -0.3263990E-14
-0.9603000E+00 -0.3215754E-14
-0.9597900E+00 -0.3051472E-14
-0.9592800E+00 -0.2781732E-14
-0.9587700E+00 -0.2422392E-14
-0.9582600E+00 -0.1993568E-14
-0.9577500E+00 -0.1518350E-14
-0.9572400E+00 -0.1021340E-14
-0.9567300E+00 -0.5271113E-15
-0.9562200E+00 -0.5868132E-16
-0.9557100E+00  0.3638828E-15
-0.9552000E+00  0.7246445E-15
-0.9546900E+00  0.1012676E-14
-0.9541800E+00  0.1222577E-14
-0.9536700E+00  0.1354604E-14
-0.9531600E+00  0.1414385E-14
-0.9526500E+00  0.1412269E-14
-0.9521400E+00  0.1362333E-14
-0.9516300E+00  0.1281126E-14
-0.9511200E+00  0.1186251E-14
-0.9506100E+00  0.1094873E-14
-0.9501000E+00  0.1022277E-14
-0.9495900E+00  0.9805691E-15
-0.9490800E+00  0.9776357E-15
-0.9485700E+00  0.1016426E-14
-0.9480600E+00  0.1094624E-14
-0.9475500E+00  0.1204738E-14
-0.9470400E+00  0.1334608E-14
-0.9465300E+00  0.1468300E-14
-0.9460200E+00  0.1587334E-14
-0.9455100E+00  0.1672144E-14
-0.9450000E+00  0.1703693E-14
-0.9444900E+00  0.1665100E-14
-0.9439800E+00  0.1543176E-14
-0.9434700E+00  0.1329742E-14
-0.9429600E+00  0.1022633E-14
-0.9424500E+00  0.6262946E-15
-0.9419400E+00  0.1519311E-15
-0.9414300E+00 -0.3828419E-15
-0.9409200E+00 -0.9548132E-15
-0.9404100E+00 -0.1536428E-14
-0.9399000E+00 -0.2097396E-14
-0.9393900E+00 -0.2606565E-14
-0.9388800E+00 -0.3033916E-14
-0.9383700E+00 -0.3352578E-14
-0.9378600E+00 -0.3540688E-14
-0.9373500E+00 -0.3582990E-14
-0.9368400E+00 -0.3472051E-14
-0.9363300E+00 -0.3208989E-14
-0.9358200E+00 -0.2803666E-14
-0.9353100E+00 -0.2274314E-14
-0.9348000E+00 -0.1646605E-14
-0.9342900E+00 -0.9522164E-15
-0.9337800E+00 -0.2269758E-15
-0.9332700E+00  0.4912945E-15
-0.9327600E+00  0.1165099E-14
-0.9322500E+00  0.1759601E-14
-0.9317400E+00  0.2244815E-14
-0.9312300E+00  0.2597503E-14
-0.9307200E+00  0.2802647E-14
-0.9302100E+00  0.2854403E-14
-0.9297000E+00  0.2756446E-14
-0.9291900E+00  0.2521701E-14
-0.9286800E+00  0.2171448E-14
-0.9281700E+00  0.1733876E-14
-0.9276600E+00  0.1242163E-14
-0.9271500E+00  0.7322200E-15
-0.9266400E+00  0.2402393E-15
-0.9261300E+00 -0.1997761E-15
-0.9256200E+00 -0.5583435E-15
-0.9251100E+00 -0.8125251E-15
-0.9246000E+00 -0.9475057E-15
-0.9240900E+00 -0.9576118E-15
-0.9235800E+00 -0.8466973E-15
-0.9230700E+00 -0.6278629E-15
-0.9225600E+00 -0.3225240E-15
-0.9220500E+00  0.4111364E-16
-0.9215400E+00  0.4300715E-15
-0.9210300E+00  0.8089708E-15
-0.9205200E+00  0.1142599E-14
-0.9200100E+00  0.1398495E-14
-0.9195000E+00  0.1549365E-14
-0.9189900E+00  0.1575170E-14
-0.9184800E+00  0.1464722E-14
-0.9179700E+00  0.1216681E-14
-0.9174600E+00  0.8398726E-15
-0.9169500E+00  0.3528908E-15
-0.9164400E+00 -0.2169893E-15
-0.9159300E+00 -0.8355258E-15
-0.9154200E+00 -0.1463740E-14
-0.9149100E+00 -0.2060515E-14
-0.9144000E+00 -0.2585383E-14
-0.9138900E+00 -0.3001320E-14
-0.9133800E+00 -0.3277346E-14
-0.9128700E+00 -0.3390749E-14
-0.9123600E+00 -0.3328782E-14
-0.9118500E+00 -0.3089701E-14
-0.9113400E+00 -0.2683069E-14
-0.9108300E+00 -0.2129299E-14
-0.9103200E+00 -0.1458443E-14
-0.9098100E+00 -0.7083293E-15
-0.9093000E+00  0.7785748E-16
-0.9087900E+00  0.8543808E-15
-0.9082800E+00  0.1575953E-14
-0.9077700E+00  0.2200728E-14
-0.9072600E+00  0.2693092E-14
-0.9067500E+00  0.3026034E-14
-0.9062400E+00  0.3182961E-14
-0.9057300E+00  0.3158803E-14
-0.9052200E+00  0.2960339E-14
-0.9047100E+00  0.2605720E-14
-0.9042000E+00  0.2123198E-14
-0.9036900E+00  0.1549166E-14
-0.9031800E+00  0.9256292E-15
-0.9026700E+00  0.2972718E-15
-0.9021600E+00 -0.2916615E-15
-0.9016500E+00 -0.8004683E-15
-0.9011400E+00 -0.1194851E-14
-0.9006300E+00 -0.1449343E-14
-0.9001200E+00 -0.1549116E-14
-0.8996100E+00 -0.1491050E-14
-0.8991000E+00 -0.1283974E-14
-0.8985900E+00 -0.9480588E-15
-0.8980800E+00 -0.5133936E-15
-0.8975700E+00 -0.1784734E-16
-0.8970600E+00  0.4956521E-15
-0.8965500E+00  0.9822269E-15
-0.8960400E+00  0.1398334E-14
-0.8955300E+00  0.1704993E-14
-0.8950200E+00  0.1870735E-14
-0.8945100E+00  0.1874050E-14
-0.8940000E+00  0.1705163E-14
-0.8934900E+00  0.1367000E-14
-0.8929800E+00  0.8752667E-15
-0.8924700E+00  0.2576203E-15
-0.8919600E+00 -0.4480223E-15
-0.8914500E+00 -0.1195929E-14
-0.8909400E+00 -0.1935592E-14
-0.8904300E+00 -0.2615168E-14
-0.8899200E+00 -0.3185061E-14
-0.8894100E+00 -0.3601437E-14
-0.8889000E+00 -0.3829387E-14
-0.8883900E+00 -0.3845544E-14
-0.8878800E+00 -0.3639949E-14
-0.8873700E+00 -0.3217026E-14
-0.8868600E+00 -0.2595596E-14
-0.8863500E+00 -0.1807905E-14
-0.8858400E+00 -0.8977241E-15
-0.8853300E+00  0.8236289E-16
-0.8848200E+00  0.1074309E-14
-0.8843100E+00  0.2018371E-14
-0.8838000E+00  0.2857038E-14
-0.8832900E+00  0.3538860E-14
-0.8827800E+00  0.4021919E-14
-0.8822700E+00  0.4276684E-14
-0.8817600E+00  0.4288075E-14
-0.8812500E+00  0.4056567E-14
-0.8807400E+00  0.3598257E-14
-0.8802300E+00  0.2943882E-14
-0.8797200E+00  0.2136840E-14
-0.8792100E+00  0.1230349E-14
-0.8787000E+00  0.2839158E-15
-0.8781900E+00 -0.6406334E-15
-0.8776800E+00 -0.1483307E-14
-0.8771700E+00 -0.2189995E-14
-0.8766600E+00 -0.2716141E-14
-0.8761500E+00 -0.3029770E-14
-0.8756400E+00 -0.3113682E-14
-0.8751300E+00 -0.2966640E-14
-0.8746200E+00 -0.2603460E-14
-0.8741100E+00 -0.2054013E-14
-0.8736000E+00 -0.1361173E-14
-0.8730900E+00 -0.5778577E-15
-0.8725800E+00  0.2366302E-15
-0.8720700E+00  0.1020737E-14
-0.8715600E+00  0.1714966E-14
-0.8710500E+00  0.2266071E-14
-0.8705400E+00  0.2630839E-14
-0.8700300E+00  0.2779214E-14
-0.8695200E+00  0.2696510E-14
-0.8690100E+00  0.2384591E-14
-0.8685000E+00  0.1861890E-14
-0.8679900E+00  0.1162286E-14
-0.8674800E+00  0.3328929E-15
-0.8669700E+00 -0.5691011E-15
-0.8664600E+00 -0.1480315E-14
-0.8659500E+00 -0.2335536E-14
-0.8654400E+00 -0.3072243E-14
-0.8649300E+00 -0.3635003E-14
-0.8644200E+00 -0.3979413E-14
-0.8639100E+00 -0.4075325E-14
-0.8634000E+00 -0.3909124E-14
-0.8628900E+00 -0.3484880E-14
-0.8623800E+00 -0.2824308E-14
-0.8618700E+00 -0.1965500E-14
-0.8613600E+00 -0.9605209E-15
-0.8608500E+00  0.1279704E-15
-0.8603400E+00  0.1230872E-14
-0.8598300E+00  0.2277267E-14
-0.8593200E+00  0.3199216E-14
-0.8588100E+00  0.3936393E-14
-0.8583000E+00  0.4440242E-14
-0.8577900E+00  0.4677355E-14
-0.8572800E+00  0.4631859E-14
-0.8567700E+00  0.4306595E-14
-0.8562600E+00  0.3723051E-14
-0.8557500E+00  0.2920000E-14
-0.8552400E+00  0.1950955E-14
-0.8547300E+00  0.8805925E-15
-0.8542200E+00 -0.2196127E-15
-0.8537100E+00 -0.1276246E-14
-0.8532000E+00 -0.2218975E-14
-0.8526900E+00 -0.2985385E-14
-0.8521800E+00 -0.3525305E-14
-0.8516700E+00 -0.3804304E-14
-0.8511600E+00 -0.3806132E-14
-0.8506500E+00 -0.3533897E-14
-0.8501400E+00 -0.3009928E-14
-0.8496300E+00 -0.2274287E-14
-0.8491200E+00 -0.1382045E-14
-0.8486100E+00 -0.3994919E-15
-0.8481000E+00  0.6004628E-15
-0.8475900E+00  0.1543383E-14
-0.8470800E+00  0.2358550E-14
-0.8465700E+00  0.2983981E-14
-0.8460600E+00  0.3370891E-14
-0.8455500E+00  0.3487262E-14
-0.8450400E+00  0.3320271E-14
-0.8445300E+00  0.2877407E-14
-0.8440200E+00  0.2186171E-14
-0.8435100E+00  0.1292370E-14
-0.8430000E+00  0.2571185E-15
-0.8424900E+00 -0.8472675E-15
-0.8419800E+00 -0.1942208E-14
-0.8414700E+00 -0.2948291E-14
-0.8409600E+00 -0.3790824E-14
-0.8404500E+00 -0.4405132E-14
-0.8399400E+00 -0.4741214E-14
-0.8394300E+00 -0.4767458E-14
-0.8389200E+00 -0.4473106E-14
-0.8384100E+00 -0.3869310E-14
-0.8379000E+00 -0.2988705E-14
-0.8373900E+00 -0.1883461E-14
-0.8368800E+00 -0.6219883E-15
-0.8363700E+00  0.7155218E-15
-0.8358600E+00  0.2042423E-14
-0.8353500E+00  0.3271451E-14
-0.8348400E+00  0.4320655E-14
-0.8343300E+00  0.5119051E-14
-0.8338200E+00  0.5611562E-14
-0.8333100E+00  0.5762937E-14
-0.8328000E+00  0.5560348E-14
-0.8322900E+00  0.5014477E-14
-0.8317800E+00  0.4159004E-14
-0.8312700E+00  0.3048516E-14
-0.8307600E+00  0.1754963E-14
-0.8302500E+00  0.3629162E-15
-0.8297400E+00 -0.1036108E-14
-0.8292300E+00 -0.2349830E-14
-0.8287200E+00 -0.3491473E-14
-0.8282100E+00 -0.4385730E-14
-0.8277000E+00 -0.4973965E-14
-0.8271900E+00 -0.5218310E-14
-0.8266800E+00 -0.5104355E-14
-0.8261700E+00 -0.4642261E-14
-0.8256600E+00 -0.3866158E-14
-0.8251500E+00 -0.2831909E-14
-0.8246400E+00 -0.1613339E-14
-0.8241300E+00 -0.2972035E-15
-0.8236200E+00  0.1022765E-14
-0.8231100E+00  0.2252347E-14
-0.8226000E+00  0.3303399E-14
-0.8220900E+00  0.4100040E-14
-0.8215800E+00  0.4584030E-14
-0.8210700E+00  0.4718966E-14
-0.8205600E+00  0.4492967E-14
-0.8200500E+00  0.3919701E-14
-0.8195400E+00  0.3037611E-14
-0.8190300E+00  0.1907428E-14
-0.8185200E+00  0.6080824E-15
-0.8180100E+00 -0.7686712E-15
-0.8175000E+00 -0.2124582E-14
-0.8169900E+00 -0.3361736E-14
-0.8164800E+00 -0.4389437E-14
-0.8159700E+00 -0.5130626E-14
-0.8154600E+00 -0.5527431E-14
-0.8149500E+00 -0.5545416E-14
-0.8144400E+00 -0.5176250E-14
-0.8139300E+00 -0.4438554E-14
-0.8134200E+00 -0.3376909E-14
-0.8129100E+00 -0.2059016E-14
-0.8124000E+00 -0.5712289E-15
-0.8118900E+00  0.9872488E-15
-0.8113800E+00  0.2511126E-14
-0.8108700E+00  0.3896268E-14
-0.8103600E+00  0.5046940E-14
-0.8098500E+00  0.5882527E-14
-0.8093400E+00  0.6343253E-14
-0.8088300E+00  0.6394523E-14
-0.8083200E+00  0.6029532E-14
-0.8078100E+00  0.5269978E-14
-0.8073000E+00  0.4164789E-14
-0.8067900E+00  0.2786961E-14
-0.8062800E+00  0.1228681E-14
-0.8057700E+00 -0.4049328E-15
-0.8052600E+00 -0.2003014E-14
-0.8047500E+00 -0.3456626E-14
-0.8042400E+00 -0.4666330E-14
-0.8037300E+00 -0.5549178E-14
-0.8032200E+00 -0.6044580E-14
-0.8027100E+00 -0.6118676E-14
-0.8022000E+00 -0.5766865E-14
-0.8016900E+00 -0.5014297E-14
-0.8011800E+00 -0.3914300E-14
-0.8006700E+00 -0.2544820E-14
-0.8001600E+00 -0.1003076E-14
-0.7996500E+00  0.6011183E-15
-0.7991400E+00  0.2153018E-14
-0.7986300E+00  0.3541004E-14
-0.7981200E+00  0.4664488E-14
-0.7976100E+00  0.5441091E-14
-0.7971000E+00  0.5812617E-14
-0.7965900E+00  0.5749346E-14
-0.7960800E+00  0.5252376E-14
-0.7955700E+00  0.4353821E-14
-0.7950600E+00  0.3114796E-14
-0.7945500E+00  0.1621355E-14
-0.7940400E+00 -0.2136867E-16
-0.7935300E+00 -0.1696435E-14
-0.7930200E+00 -0.3283255E-14
-0.7925100E+00 -0.4666092E-14
-0.7920000E+00 -0.5742309E-14
-0.7914900E+00 -0.6429761E-14
-0.7909800E+00 -0.6672827E-14
-0.7904700E+00 -0.6446634E-14
-0.7899600E+00 -0.5759127E-14
-0.7894500E+00 -0.4650900E-14
-0.7889400E+00 -0.3192678E-14
-0.7884300E+00 -0.1480683E-14
-0.7879200E+00  0.3698519E-15
-0.7874100E+00  0.2232572E-14
-0.7869000E+00  0.3978756E-14
-0.7863900E+00  0.5486298E-14
-0.7858800E+00  0.6648333E-14
-0.7853700E+00  0.7380868E-14
-0.7848600E+00  0.7628878E-14
-0.7843500E+00  0.7370430E-14
-0.7838400E+00  0.6618515E-14
-0.7833300E+00  0.5420463E-14
-0.7828200E+00  0.3854910E-14
-0.7823100E+00  0.2026581E-14
-0.7818000E+00  0.5917004E-16
-0.7812900E+00 -0.1913154E-14
-0.7807800E+00 -0.3755039E-14
-0.7802700E+00 -0.5339431E-14
-0.7797600E+00 -0.6556521E-14
-0.7792500E+00 -0.7321545E-14
-0.7787400E+00 -0.7580894E-14
-0.7782300E+00 -0.7316073E-14
-0.7777200E+00 -0.6545211E-14
-0.7772100E+00 -0.5322041E-14
-0.7767000E+00 -0.3732296E-14
-0.7761900E+00 -0.1887884E-14
-0.7756800E+00  0.8084733E-16
-0.7751700E+00  0.2034224E-14
-0.7746600E+00  0.3833036E-14
-0.7741500E+00  0.5348414E-14
-0.7736400E+00  0.6471002E-14
-0.7731300E+00  0.7118820E-14
-0.7726200E+00  0.7243294E-14
-0.7721100E+00  0.6832884E-14
-0.7716000E+00  0.5914174E-14
-0.7710900E+00  0.4550246E-14
-0.7705800E+00  0.2836455E-14
-0.7700700E+00  0.8938623E-15
-0.7695600E+00 -0.1139171E-14
-0.7690500E+00 -0.3116708E-14
-0.7685400E+00 -0.4895565E-14
-0.7680300E+00 -0.6345532E-14
-0.7675200E+00 -0.7358716E-14
-0.7670100E+00 -0.7857426E-14
-0.7665000E+00 -0.7799936E-14
-0.7659900E+00 -0.7183744E-14
-0.7654800E+00 -0.6046077E-14
-0.7649700E+00 -0.4461570E-14
-0.7644600E+00 -0.2537289E-14
-0.7639500E+00 -0.4053821E-15
-0.7634400E+00  0.1786094E-14
-0.7629300E+00  0.3883557E-14
-0.7624200E+00  0.5738746E-14
-0.7619100E+00  0.7219272E-14
-0.7614000E+00  0.8218136E-14
-0.7608900E+00  0.8661508E-14
-0.7603800E+00  0.8514197E-14
-0.7598700E+00  0.7782430E-14
-0.7593600E+00  0.6513714E-14
-0.7588500E+00  0.4793749E-14
-0.7583400E+00  0.2740615E-14
-0.7578300E+00  0.4966048E-15
-0.7573200E+00 -0.1781709E-14
-0.7568100E+00 -0.3934510E-14
-0.7563000E+00 -0.5810061E-14
-0.7557900E+00 -0.7275546E-14
-0.7552800E+00 -0.8226623E-14
-0.7547700E+00 -0.8595023E-14
-0.7542600E+00 -0.8353638E-14
-0.7537500E+00 -0.7518684E-14
-0.7532400E+00 -0.6148790E-14
-0.7527300E+00 -0.4341082E-14
-0.7522200E+00 -0.2224460E-14
-0.7517100E+00  0.4941405E-16
-0.7512000E+00  0.2316841E-14
-0.7506900E+00  0.4413717E-14
-0.7501800E+00  0.6187316E-14
-0.7496700E+00  0.7507287E-14
-0.7491600E+00  0.8275171E-14
-0.7486500E+00  0.8431677E-14
-0.7481400E+00  0.7961225E-14
-0.7476300E+00  0.6893351E-14
-0.7471200E+00  0.5300946E-14
-0.7466100E+00  0.3295328E-14
-0.7461000E+00  0.1018545E-14
-0.7455900E+00 -0.1366585E-14
-0.7450800E+00 -0.3687997E-14
-0.7445700E+00 -0.5776659E-14
-0.7440600E+00 -0.7478707E-14
-0.7435500E+00 -0.8666631E-14
-0.7430400E+00 -0.9248621E-14
-0.7425300E+00 -0.9175448E-14
-0.7420200E+00 -0.8444354E-14
-0.7415100E+00 -0.7099624E-14
-0.7410000E+00 -0.5229830E-14
-0.7404900E+00 -0.2961843E-14
-0.7399800E+00 -0.4520926E-15
-0.7394700E+00  0.2124356E-14
-0.7389600E+00  0.4586161E-14
-0.7384500E+00  0.6758596E-14
-0.7379400E+00  0.8486040E-14
-0.7374300E+00  0.9643222E-14
-0.7369200E+00  0.1014437E-13
-0.7364100E+00  0.9949604E-14
-0.7359000E+00  0.9068097E-14
-0.7353900E+00  0.7557742E-14
-0.7348800E+00  0.5521339E-14
-0.7343700E+00  0.3099571E-14
-0.7338600E+00  0.4611980E-15
-0.7333500E+00 -0.2208799E-14
-0.7328400E+00 -0.4722329E-14
-0.7323300E+00 -0.6901576E-14
-0.7318200E+00 -0.8591752E-14
-0.7313100E+00 -0.9672291E-14
-0.7308000E+00 -0.1006563E-13
-0.7302900E+00 -0.9742990E-14
-0.7297800E+00 -0.8726656E-14
-0.7292700E+00 -0.7088671E-14
-0.7287600E+00 -0.4945910E-14
-0.7282500E+00 -0.2451921E-14
-0.7277400E+00  0.2139143E-15
-0.7272300E+00  0.2859150E-14
-0.7267200E+00  0.5292011E-14
-0.7262100E+00  0.7335214E-14
-0.7257000E+00  0.8838803E-14
-0.7251900E+00  0.9691105E-14
-0.7246800E+00  0.9826987E-14
-0.7241700E+00  0.9232818E-14
-0.7236600E+00  0.7947757E-14
-0.7231500E+00  0.6061264E-14
-0.7226400E+00  0.3706933E-14
-0.7221300E+00  0.1053169E-14
-0.7216200E+00 -0.1708772E-14
-0.7211100E+00 -0.4378402E-14
-0.7206000E+00 -0.6760423E-14
-0.7200900E+00 -0.8678831E-14
-0.7195800E+00 -0.9989746E-14
-0.7190700E+00 -0.1059202E-13
-0.7185600E+00 -0.1043479E-13
-0.7180500E+00 -0.9521569E-14
-0.7175400E+00 -0.7910295E-14
-0.7170300E+00 -0.5709627E-14
-0.7165200E+00 -0.3071449E-14
-0.7160100E+00 -0.1802731E-15
-0.7155000E+00  0.2759801E-14
-0.7149900E+00  0.5539592E-14
-0.7144800E+00  0.7959820E-14
-0.7139700E+00  0.9845494E-14
-0.7134600E+00  0.1105861E-13
-0.7129500E+00  0.1150830E-13
-0.7124400E+00  0.1115761E-13
-0.7119300E+00  0.1002653E-13
-0.7114200E+00  0.8190829E-14
-0.7109100E+00  0.5777026E-14
-0.7104000E+00  0.2953553E-14
-0.7098900E+00 -0.8108277E-16
-0.7093800E+00 -0.3112376E-14
-0.7088700E+00 -0.5925112E-14
-0.7083600E+00 -0.8318827E-14
-0.7078500E+00 -0.1012226E-13
-0.7073400E+00 -0.1120581E-13
-0.7068300E+00 -0.1149104E-13
-0.7063200E+00 -0.1095661E-13
-0.7058100E+00 -0.9639979E-14
-0.7053000E+00 -0.7635073E-14
-0.7047900E+00 -0.5085727E-14
-0.7042800E+00 -0.2175567E-14
-0.7037700E+00  0.8850471E-15
-0.7032600E+00  0.3874105E-14
-0.7027500E+00  0.6573906E-14
-0.7022400E+00  0.8786835E-14
-0.7017300E+00  0.1034975E-13
-0.7012200E+00  0.1114597E-13
-0.7007100E+00  0.1111394E-13
-0.7002000E+00  0.1025206E-13
-0.6996900E+00  0.8619066E-14
-0.6991800E+00  0.6330190E-14
-0.6986700E+00  0.3549108E-14
-0.6981600E+00  0.4763971E-15
-0.6976500E+00 -0.2664772E-14
-0.6971400E+00 -0.5644647E-14
-0.6966300E+00 -0.8243497E-14
-0.6961200E+00 -0.1026759E-13
-0.6956100E+00 -0.1156339E-13
-0.6951000E+00 -0.1202898E-13
-0.6945900E+00 -0.1162175E-13
-0.6940800E+00 -0.1036192E-13
-0.6935700E+00 -0.8331564E-14
-0.6930600E+00 -0.5669077E-14
-0.6925500E+00 -0.2559637E-14
-0.6920400E+00  0.7778180E-15
-0.6915300E+00  0.4106128E-14
-0.6910200E+00  0.7186837E-14
-0.6905100E+00  0.9797361E-14