-0.1200000E+01 -0.1438771E-28
-0.1199490E+01 -0.1477837E-28
-0.1198980E+01 -0.1517956E-28
-0.1198470E+01 -0.1559156E-28
-0.1197960E+01 -0.1601466E-28
-0.1197450E+01 -0.1644917E-28
-0.1196940E+01 -0.1689537E-28
-0.1196430E+01 -0.1735359E-28
-0.1195920E+01 -0.1782415E-28
-0.1195410E+01 -0.1830738E-28
-0.1194900E+01 -0.1880360E-28
-0.1194390E+01 -0.1931318E-28
-0.1193880E+01 -0.1983646E-28
-0.1193370E+01 -0.2037381E-28
-0.1192860E+01 -0.2092560E-28
-0.1192350E+01 -0.2149223E-28
-0.1191840E+01 -0.2207408E-28
-0.1191330E+01 -0.2267156E-28
-0.1190820E+01 -0.2328509E-28
-0.1190310E+01 -0.2391510E-28
-0.1189800E+01 -0.2456203E-28
-0.1189290E+01 -0.2522632E-28
-0.1188780E+01 -0.2590844E-28
-0.1188270E+01 -0.2660887E-28
-0.1187760E+01 -0.2732810E-28
-0.1187250E+01 -0.2806662E-28
-0.1186740E+01 -0.2882494E-28
-0.1186230E+01 -0.2960360E-28
-0.1185720E+01 -0.3040315E-28
-0.1185210E+01 -0.3122412E-28
-0.1184700E+01 -0.3206709E-28
-0.1184190E+01 -0.3293266E-28
-0.1183680E+01 -0.3382142E-28
-0.1183170E+01 -0.3473398E-28
-0.1182660E+01 -0.3567098E-28
-0.1182150E+01 -0.3663306E-28
-0.1181640E+01 -0.3762089E-28
-0.1181130E+01 -0.3863516E-28
-0.1180620E+01 -0.3967656E-28
-0.1180110E+01 -0.4074582E-28
-0.1179600E+01 -0.4184367E-28
-0.1179090E+01 -0.4297088E-28
-0.1178580E+01 -0.4412822E-28
-0.1178070E+01 -0.4531648E-28
-0.1177560E+01 -0.4653650E-28
-0.1177050E+01 -0.4778912E-28
-0.1176540E+01 -0.4907519E-28
-0.1176030E+01 -0.5039561E-28
-0.1175520E+01 -0.5175130E-28
-0.1175010E+01 -0.5314317E-28
-0.1174500E+01 -0.5457220E-28
-0.1173990E+01 -0.5603937E-28
-0.1173480E+01 -0.5754569E-28
-0.1172970E+01 -0.5909220E-28
-0.1172460E+01 -0.6067996E-28
-0.1171950E+01 -0.6231006E-28
-0.1171440E+01 -0.6398364E-28
-0.1170930E+01 -0.6570182E-28
-0.1170420E+01 -0.6746581E-28
-0.1169910E+01 -0.6927680E-28
-0.1169400E+01 -0.7113603E-28
-0.1168890E+01 -0.7304480E-28
-0.1168380E+01 -0.7500439E-28
-0.1167870E+01 -0.7701616E-28
-0.1167360E+01 -0.7908147E-28
-0.1166850E+01 -0.8120174E-28
-0.1166340E+01 -0.8337844E-28
-0.1165830E+01 -0.8561303E-28
-0.1165320E+01 -0.8790704E-28
-0.1164810E+01 -0.9026205E-28
-0.1164300E+01 -0.9267967E-28
-0.1163790E+01 -0.9516153E-28
-0.1163280E+01 -0.9770935E-28
-0.1162770E+01 -0.1003249E-27
-0.1162260E+01 -0.1030098E-27
-0.1161750E+01 -0.1057661E-27
-0.1161240E+01 -0.1085956E-27
-0.1160730E+01 -0.1115002E-27
-0.1160220E+01 -0.1144818E-27
-0.1159710E+01 -0.1175426E-27
-0.1159200E+01 -0.1206846E-27
-0.1158690E+01 -0.1239100E-27
-0.1158180E+01 -0.1272209E-27
-0.1157670E+01 -0.1306196E-27
-0.1157160E+01 -0.1341083E-27
-0.1156650E+01 -0.1376896E-27
-0.1156140E+01 -0.1413657E-27
-0.1155630E+01 -0.1451392E-27
-0.1155120E+01 -0.1490127E-27
-0.1154610E+01 -0.1529887E-27
-0.1154100E+01 -0.1570701E-27
-0.1153590E+01 -0.1612594E-27
-0.1153080E+01 -0.1655596E-27
-0.1152570E+01 -0.1699736E-27
-0.1152060E+01 -0.1745043E-27
-0.1151550E+01 -0.1791549E-27
-0.1151040E+01 -0.1839284E-27
-0.1150530E+01 -0.1888281E-27
-0.1150020E+01 -0.1938574E-27
-0.1149510E+01 -0.1990195E-27
-0.1149000E+01 -0.2043180E-27
-0.1148490E+01 -0.2097565E-27
-0.1147980E+01 -0.2153387E-27
-0.1147470E+01 -0.2210683E-27
-0.1146960E+01 -0.2269492E-27
-0.1146450E+01 -0.2329853E-27
-0.1145940E+01 -0.2391807E-27
-0.1145430E+01 -0.2455396E-27
-0.1144920E+01 -0.2520663E-27
-0.1144410E+01 -0.2587651E-27
-0.1143900E+01 -0.2656406E-27
-0.1143390E+01 -0.2726974E-27
-0.1142880E+01 -0.2799401E-27
-0.1142370E+01 -0.2873738E-27
-0.1141860E+01 -0.2950033E-27
-0.1141350E+01 -0.3028338E-27
-0.1140840E+01 -0.3108706E-27
-0.1140330E+01 -0.3191190E-27
-0.1139820E+01 -0.3275845E-27
-0.1139310E+01 -0.3362728E-27
-0.1138800E+01 -0.3451898E-27
-0.1138290E+01 -0.3543414E-27
-0.1137780E+01 -0.3637338E-27
-0.1137270E+01 -0.3733731E-27
-0.1136760E+01 -0.3832659E-27
-0.1136250E+01 -0.3934188E-27
-0.1135740E+01 -0.4038385E-27
-0.1135230E+01 -0.4145321E-27
-0.1134720E+01 -0.4255066E-27
-0.1134210E+01 -0.4367694E-27
-0.1133700E+01 -0.4483279E-27
-0.1133190E+01 -0.4601900E-27
-0.1132680E+01 -0.4723634E-27
-0.1132170E+01 -0.4848563E-27
-0.1131660E+01 -0.4976771E-27
-0.1131150E+01 -0.5108342E-27
-0.1130640E+01 -0.5243364E-27
-0.1130130E+01 -0.5381926E-27
-0.1129620E+01 -0.5524121E-27
-0.1129110E+01 -0.5670043E-27
-0.1128600E+01 -0.5819789E-27
-0.1128090E+01 -0.5973458E-27
-0.1127580E+01 -0.6131153E-27
-0.1127070E+01 -0.6292977E-27
-0.1126560E+01 -0.6459039E-27
-0.1126050E+01 -0.6629448E-27
-0.1125540E+01 -0.6804317E-27
-0.1125030E+01 -0.6983762E-27
-0.1124520E+01 -0.7167902E-27
-0.1124010E+01 -0.7356860E-27
-0.1123500E+01 -0.7550759E-27
-0.1122990E+01 -0.7749728E-27
-0.1122480E+01 -0.7953899E-27
-0.1121970E+01 -0.8163407E-27
-0.1121460E+01 -0.8378389E-27
-0.1120950E+01 -0.8598989E-27
-0.1120440E+01 -0.8825352E-27
-0.1119930E+01 -0.9057625E-27
-0.1119420E+01 -0.9295964E-27
-0.1118910E+01 -0.9540525E-27
-0.1118400E+01 -0.9791469E-27
-0.1117890E+01 -0.1004896E-26
-0.1117380E+01 -0.1031317E-26
-0.1116870E+01 -0.1058428E-26
-0.1116360E+01 -0.1086245E-26
-0.1115850E+01 -0.1114787E-26
-0.1115340E+01 -0.1144074E-26
-0.1114830E+01 -0.1174124E-26
-0.1114320E+01 -0.1204957E-26
-0.1113810E+01 -0.1236593E-26
-0.1113300E+01 -0.1269054E-26
-0.1112790E+01 -0.1302359E-26
-0.1112280E+01 -0.1336532E-26
-0.1111770E+01 -0.1371594E-26
-0.1111260E+01 -0.1407569E-26
-0.1110750E+01 -0.1444480E-26
-0.1110240E+01 -0.1482351E-26
-0.1109730E+01 -0.1521207E-26
-0.1109220E+01 -0.1561074E-26
-0.1108710E+01 -0.1601977E-26
-0.1108200E+01 -0.1643943E-26
-0.1107690E+01 -0.1687000E-26
-0.1107180E+01 -0.1731175E-26
-0.1106670E+01 -0.1776498E-26
-0.1106160E+01 -0.1822998E-26
-0.1105650E+01 -0.1870706E-26
-0.1105140E+01 -0.1919652E-26
-0.1104630E+01 -0.1969868E-26
-0.1104120E+01 -0.2021387E-26
-0.1103610E+01 -0.2074243E-26
-0.1103100E+01 -0.2128469E-26
-0.1102590E+01 -0.2184102E-26
-0.1102080E+01 -0.2241178E-26
-0.1101570E+01 -0.2299732E-26
-0.1101060E+01 -0.2359805E-26
-0.1100550E+01 -0.2421433E-26
-0.1100040E+01 -0.2484658E-26
-0.1099530E+01 -0.2549521E-26
-0.1099020E+01 -0.2616063E-26
-0.1098510E+01 -0.2684328E-26
-0.1098000E+01 -0.2754360E-26
-0.1097490E+01 -0.2826204E-26
-0.1096980E+01 -0.2899907E-26
-0.1096470E+01 -0.2975517E-26
-0.1095960E+01 -0.3053082E-26
-0.1095450E+01 -0.3132653E-26
-0.1094940E+01 -0.3214281E-26
-0.1094430E+01 -0.3298018E-26
-0.1093920E+01 -0.3383919E-26
-0.1093410E+01 -0.3472040E-26
-0.1092900E+01 -0.3562437E-26
-0.1092390E+01 -0.3655168E-26
-0.1091880E+01 -0.3750294E-26
-0.1091370E+01 -0.3847875E-26
-0.1090860E+01 -0.3947975E-26
-0.1090350E+01 -0.4050658E-26
-0.1089840E+01 -0.4155990E-26
-0.1089330E+01 -0.4264039E-26
-0.1088820E+01 -0.4374874E-26
-0.1088310E+01 -0.4488567E-26
-0.1087800E+01 -0.4605191E-26
-0.1087290E+01 -0.4724820E-26
-0.1086780E+01 -0.4847531E-26
-0.1086270E+01 -0.4973404E-26
-0.1085760E+01 -0.5102519E-26
-0.1085250E+01 -0.5234959E-26
-0.1084740E+01 -0.5370808E-26
-0.1084230E+01 -0.5510154E-26
-0.1083720E+01 -0.5653086E-26
-0.1083210E+01 -0.5799696E-26
-0.1082700E+01 -0.5950077E-26
-0.1082190E+01 -0.6104326E-26
-0.1081680E+01 -0.6262541E-26
-0.1081170E+01 -0.6424824E-26
-0.1080660E+01 -0.6591277E-26
-0.1080150E+01 -0.6762008E-26
-0.1079640E+01 -0.6937124E-26
-0.1079130E+01 -0.7116739E-26
-0.1078620E+01 -0.7300965E-26
-0.1078110E+01 -0.7489922E-26
-0.1077600E+01 -0.7683729E-26
-0.1077090E+01 -0.7882510E-26
-0.1076580E+01 -0.8086391E-26
-0.1076070E+01 -0.8295502E-26
-0.1075560E+01 -0.8509976E-26
-0.1075050E+01 -0.8729948E-26
-0.1074540E+01 -0.8955560E-26
-0.1074030E+01 -0.9186955E-26
-0.1073520E+01 -0.9424279E-26
-0.1073010E+01 -0.9667684E-26
-0.1072500E+01 -0.9917323E-26
-0.1071990E+01 -0.1017335E-25
-0.1071480E+01 -0.1043594E-25
-0.1070970E+01 -0.1070525E-25
-0.1070460E+01 -0.1098145E-25
-0.1069950E+01 -0.1126472E-25
-0.1069440E+01 -0.1155524E-25
-0.1068930E+01 -0.1185318E-25
-0.1068420E+01 -0.1215875E-25
-0.1067910E+01 -0.1247212E-25
-0.1067400E+01 -0.1279351E-25
-0.1066890E+01 -0.1312311E-25
-0.1066380E+01 -0.1346113E-25
-0.1065870E+01 -0.1380779E-25
-0.1065360E+01 -0.1416330E-25
-0.1064850E+01 -0.1452788E-25
-0.1064340E+01 -0.1490178E-25
-0.1063830E+01 -0.1528521E-25
-0.1063320E+01 -0.1567844E-25
-0.1062810E+01 -0.1608169E-25
-0.1062300E+01 -0.1649523E-25
-0.1061790E+01 -0.1691932E-25
-0.1061280E+01 -0.1735422E-25
-0.1060770E+01 -0.1780021E-25
-0.1060260E+01 -0.1825756E-25
-0.1059750E+01 -0.1872657E-25
-0.1059240E+01 -0.1920753E-25
-0.1058730E+01 -0.1970073E-25
-0.1058220E+01 -0.2020650E-25
-0.1057710E+01 -0.2072514E-25
-0.1057200E+01 -0.2125698E-25
-0.1056690E+01 -0.2180236E-25
-0.1056180E+01 -0.2236161E-25
-0.1055670E+01 -0.2293509E-25
-0.1055160E+01 -0.2352315E-25
-0.1054650E+01 -0.2412617E-25
-0.1054140E+01 -0.2474452E-25
-0.1053630E+01 -0.2537858E-25
-0.1053120E+01 -0.2602875E-25
-0.1052610E+01 -0.2669544E-25
-0.1052100E+01 -0.2737906E-25
-0.1051590E+01 -0.2808005E-25
-0.1051080E+01 -0.2879883E-25
-0.1050570E+01 -0.2953586E-25
-0.1050060E+01 -0.3029159E-25
-0.1049550E+01 -0.3106649E-25
-0.1049040E+01 -0.3186106E-25
-0.1048530E+01 -0.3267577E-25
-0.1048020E+01 -0.3351115E-25
-0.1047510E+01 -0.3436770E-25
-0.1047000E+01 -0.3524596E-25
-0.1046490E+01 -0.3614648E-25
-0.1045980E+01 -0.3706980E-25
-0.1045470E+01 -0.3801652E-25
-0.1044960E+01 -0.3898721E-25
-0.1044450E+01 -0.3998247E-25
-0.1043940E+01 -0.4100293E-25
-0.1043430E+01 -0.4204921E-25
-0.1042920E+01 -0.4312196E-25
-0.1042410E+01 -0.4422185E-25
-0.1041900E+01 -0.4534956E-25
-0.1041390E+01 -0.4650578E-25
-0.1040880E+01 -0.4769124E-25
-0.1040370E+01 -0.4890665E-25
-0.1039860E+01 -0.5015277E-25
-0.1039350E+01 -0.5143038E-25
-0.1038840E+01 -0.5274026E-25
-0.1038330E+01 -0.5408323E-25
-0.1037820E+01 -0.5546010E-25
-0.1037310E+01 -0.5687173E-25
-0.1036800E+01 -0.5831898E-25
-0.1036290E+01 -0.5980275E-25
-0.1035780E+01 -0.6132395E-25
-0.1035270E+01 -0.6288352E-25
-0.1034760E+01 -0.6448242E-25
-0.1034250E+01 -0.6612163E-25
-0.1033740E+01 -0.6780216E-25
-0.1033230E+01 -0.6952504E-25
-0.1032720E+01 -0.7129132E-25
-0.1032210E+01 -0.7310209E-25
-0.1031700E+01 -0.7495847E-25
-0.1031190E+01 -0.7686158E-25
-0.1030680E+01 -0.7881261E-25
-0.1030170E+01 -0.8081274E-25
-0.1029660E+01 -0.8286319E-25
-0.1029150E+01 -0.8496523E-25
-0.1028640E+01 -0.8712013E-25
-0.1028130E+01 -0.8932922E-25
-0.1027620E+01 -0.9159386E-25
-0.1027110E+01 -0.9391541E-25
-0.1026600E+01 -0.9629531E-25
-0.1026090E+01 -0.9873500E-25
-0.1025580E+01 -0.1012360E-24
-0.1025070E+01 -0.1037998E-24
-0.1024560E+01 -0.1064279E-24
-0.1024050E+01 -0.1091221E-24
-0.1023540E+01 -0.1118838E-24
-0.1023030E+01 -0.1147149E-24
-0.1022520E+01 -0.1176169E-24
-0.1022010E+01 -0.1205918E-24
-0.1021500E+01 -0.1236413E-24
-0.1020990E+01 -0.1267672E-24
-0.1020480E+01 -0.1299714E-24
-0.1019970E+01 -0.1332560E-24
-0.1019460E+01 -0.1366228E-24
-0.1018950E+01 -0.1400740E-24
-0.1018440E+01 -0.1436116E-24
-0.1017930E+01 -0.1472378E-24
-0.1017420E+01 -0.1509548E-24
-0.1016910E+01 -0.1547648E-24
-0.1016400E+01 -0.1586701E-24
-0.1015890E+01 -0.1626731E-24
-0.1015380E+01 -0.1667762E-24
-0.1014870E+01 -0.1709819E-24
-0.1014360E+01 -0.1752928E-24
-0.1013850E+01 -0.1797114E-24
-0.1013340E+01 -0.1842404E-24
-0.1012830E+01 -0.1888826E-24
-0.1012320E+01 -0.1936407E-24
-0.1011810E+01 -0.1985177E-24
-0.1011300E+01 -0.2035164E-24
-0.1010790E+01 -0.2086399E-24
-0.1010280E+01 -0.2138913E-24
-0.1009770E+01 -0.2192737E-24
-0.1009260E+01 -0.2247904E-24
-0.1008750E+01 -0.2304447E-24
-0.1008240E+01 -0.2362400E-24
-0.1007730E+01 -0.2421798E-24
-0.1007220E+01 -0.2482676E-24
-0.1006710E+01 -0.2545071E-24
-0.1006200E+01 -0.2609021E-24
-0.1005690E+01 -0.2674564E-24
-0.1005180E+01 -0.2741739E-24
-0.1004670E+01 -0.2810586E-24
-0.1004160E+01 -0.2881147E-24
-0.1003650E+01 -0.2953464E-24
-0.1003140E+01 -0.3027581E-24
-0.1002630E+01 -0.3103542E-24
-0.1002120E+01 -0.3181391E-24
-0.1001610E+01 -0.3261177E-24
-0.1001100E+01 -0.3342946E-24
-0.1000590E+01 -0.3426747E-24
-0.1000080E+01 -0.3512631E-24
-0.9995700E+00 -0.3600648E-24
-0.9990600E+00 -0.3690852E-24
-0.9985500E+00 -0.3783296E-24
-0.9980400E+00 -0.3878035E-24
-0.9975300E+00 -0.3975126E-24
-0.9970200E+00 -0.4074626E-24
-0.9965100E+00 -0.4176595E-24
-0.9960000E+00 -0.4281093E-24
-0.9954900E+00 -0.4388184E-24
-0.9949800E+00 -0.4497929E-24
-0.9944700E+00 -0.4610395E-24
-0.9939600E+00 -0.4725649E-24
-0.9934500E+00 -0.4843758E-24
-0.9929400E+00 -0.4964793E-24
-0.9924300E+00 -0.5088826E-24
-0.9919200E+00 -0.5215931E-24
-0.9914100E+00 -0.5346182E-24
-0.9909000E+00 -0.5479658E-24
-0.9903900E+00 -0.5616436E-24
-0.9898800E+00 -0.5756599E-24
-0.9893700E+00 -0.5900228E-24
-0.9888600E+00 -0.6047410E-24
-0.9883500E+00 -0.6198230E-24
-0.9878400E+00 -0.6352779E-24
-0.9873300E+00 -0.6511147E-24
-0.9868200E+00 -0.6673428E-24
-0.9863100E+00 -0.6839718E-24
-0.9858000E+00 -0.7010115E-24
-0.9852900E+00 -0.7184720E-24
-0.9847800E+00 -0.7363635E-24
-0.9842700E+00 -0.7546966E-24
-0.9837600E+00 -0.7734822E-24
-0.9832500E+00 -0.7927312E-24
-0.9827400E+00 -0.8124549E-24
-0.9822300E+00 -0.8326652E-24
-0.9817200E+00 -0.8533737E-24
-0.9812100E+00 -0.8745926E-24
-0.9807000E+00 -0.8963345E-24
-0.9801900E+00 -0.9186121E-24
-0.9796800E+00 -0.9414383E-24
-0.9791700E+00 -0.9648268E-24
-0.9786600E+00 -0.9887912E-24
-0.9781500E+00 -0.1013345E-23
-0.9776400E+00 -0.1038504E-23
-0.9771300E+00 -0.1064282E-23
-0.9766200E+00 -0.1090694E-23
-0.9761100E+00 -0.1117755E-23
-0.9756000E+00 -0.1145482E-23
-0.9750900E+00 -0.1173891E-23
-0.9745800E+00 -0.1202998E-23
-0.9740700E+00 -0.1232820E-23
-0.9735600E+00 -0.1263375E-23
-0.9730500E+00 -0.1294681E-23
-0.9725400E+00 -0.1326755E-23
-0.9720300E+00 -0.1359617E-23
-0.9715200E+00 -0.1393286E-23
-0.9710100E+00 -0.1427781E-23
-0.9705000E+00 -0.1463122E-23
-0.9699900E+00 -0.1499330E-23
-0.9694800E+00 -0.1536427E-23
-0.9689700E+00 -0.1574432E-23
-0.9684600E+00 -0.1613370E-23
-0.9679500E+00 -0.1653262E-23
-0.9674400E+00 -0.1694131E-23
-0.9669300E+00 -0.1736002E-23
-0.9664200E+00 -0.1778898E-23
-0.9659100E+00 -0.1822845E-23
-0.9654000E+00 -0.1867868E-23
-0.9648900E+00 -0.1913993E-23
-0.9643800E+00 -0.1961246E-23
-0.9638700E+00 -0.2009655E-23
-0.9633600E+00 -0.2059249E-23
-0.9628500E+00 -0.2110055E-23
-0.9623400E+00 -0.2162104E-23
-0.9618300E+00 -0.2215425E-23
-0.9613200E+00 -0.2270049E-23
-0.9608100E+00 -0.2326007E-23
-0.9603000E+00 -0.2383333E-23
-0.9597900E+00 -0.2442058E-23
-0.9592800E+00 -0.2502218E-23
-0.9587700E+00 -0.2563846E-23
-0.9582600E+00 -0.2626978E-23
-0.9577500E+00 -0.2691651E-23
-0.9572400E+00 -0.2757902E-23
-0.9567300E+00 -0.2825768E-23
-0.9562200E+00 -0.2895289E-23
-0.9557100E+00 -0.2966506E-23
-0.9552000E+00 -0.3039458E-23
-0.9546900E+00 -0.3114187E-23
-0.9541800E+00 -0.3190738E-23
-0.9536700E+00 -0.3269153E-23
-0.9531600E+00 -0.3349478E-23
-0.9526500E+00 -0.3431758E-23
-0.9521400E+00 -0.3516042E-23
-0.9516300E+00 -0.3602376E-23
-0.9511200E+00 -0.3690812E-23
-0.9506100E+00 -0.3781398E-23
-0.9501000E+00 -0.3874188E-23
-0.9495900E+00 -0.3969234E-23
-0.9490800E+00 -0.4066591E-23
-0.9485700E+00 -0.4166314E-23
-0.9480600E+00 -0.4268460E-23
-0.9475500E+00 -0.4373088E-23
-0.9470400E+00 -0.4480257E-23
-0.9465300E+00 -0.4590029E-23
-0.9460200E+00 -0.4702466E-23
-0.9455100E+00 -0.4817632E-23
-0.9450000E+00 -0.4935592E-23
-0.9444900E+00 -0.5056414E-23
-0.9439800E+00 -0.5180167E-23
-0.9434700E+00 -0.5306921E-23
-0.9429600E+00 -0.5436748E-23
-0.9424500E+00 -0.5569722E-23
-0.9419400E+00 -0.5705918E-23
-0.9414300E+00 -0.5845415E-23
-0.9409200E+00 -0.5988290E-23
-0.9404100E+00 -0.6134625E-23
-0.9399000E+00 -0.6284504E-23
-0.9393900E+00 -0.6438010E-23
-0.9388800E+00 -0.6595232E-23
-0.9383700E+00 -0.6756258E-23
-0.9378600E+00 -0.6921178E-23
-0.9373500E+00 -0.7090088E-23
-0.9368400E+00 -0.7263082E-23
-0.9363300E+00 -0.7440258E-23
-0.9358200E+00 -0.7621715E-23
-0.9353100E+00 -0.7807558E-23
-0.9348000E+00 -0.7997891E-23
-0.9342900E+00 -0.8192821E-23
-0.9337800E+00 -0.8392458E-23
-0.9332700E+00 -0.8596915E-23
-0.9327600E+00 -0.8806307E-23
-0.9322500E+00 -0.9020751E-23
-0.9317400E+00 -0.9240370E-23
-0.9312300E+00 -0.9465286E-23
-0.9307200E+00 -0.9695627E-23
-0.9302100E+00 -0.9931520E-23
-0.9297000E+00 -0.1017310E-22
-0.9291900E+00 -0.1042050E-22
-0.9286800E+00 -0.1067386E-22
-0.9281700E+00 -0.1093333E-22
-0.9276600E+00 -0.1119904E-22
-0.9271500E+00 -0.1147115E-22
-0.9266400E+00 -0.1174981E-22
-0.9261300E+00 -0.1203518E-22
-0.9256200E+00 -0.1232742E-22
-0.9251100E+00 -0.1262668E-22
-0.9246000E+00 -0.1293314E-22
-0.9240900E+00 -0.1324697E-22
-0.9235800E+00 -0.1356835E-22
-0.9230700E+00 -0.1389745E-22
-0.9225600E+00 -0.1423446E-22
-0.9220500E+00 -0.1457956E-22
-0.9215400E+00 -0.1493295E-22
-0.9210300E+00 -0.1529483E-22
-0.9205200E+00 -0.1566540E-22
-0.9200100E+00 -0.1604486E-22
-0.9195000E+00 -0.1643343E-22
-0.9189900E+00 -0.1683132E-22
-0.9184800E+00 -0.1723875E-22
-0.9179700E+00 -0.1765595E-22
-0.9174600E+00 -0.1808316E-22
-0.9169500E+00 -0.1852060E-22
-0.9164400E+00 -0.1896853E-22
-0.9159300E+00 -0.1942719E-22
-0.9154200E+00 -0.1989684E-22
-0.9149100E+00 -0.2037773E-22
-0.9144000E+00 -0.2087014E-22
-0.9138900E+00 -0.2137433E-22
-0.9133800E+00 -0.2189060E-22
-0.9128700E+00 -0.2241921E-22
-0.9123600E+00 -0.2296047E-22
-0.9118500E+00 -0.2351467E-22
-0.9113400E+00 -0.2408212E-22
-0.9108300E+00 -0.2466314E-22
-0.9103200E+00 -0.2525804E-22
-0.9098100E+00 -0.2586716E-22
-0.9093000E+00 -0.2649084E-22
-0.9087900E+00 -0.2712940E-22
-0.9082800E+00 -0.2778322E-22
-0.9077700E+00 -0.2845264E-22
-0.9072600E+00 -0.2913804E-22
-0.9067500E+00 -0.2983980E-22
-0.9062400E+00 -0.3055830E-22
-0.9057300E+00 -0.3129394E-22
-0.9052200E+00 -0.3204711E-22
-0.9047100E+00 -0.3281824E-22
-0.9042000E+00 -0.3360775E-22
-0.9036900E+00 -0.3441608E-22
-0.9031800E+00 -0.3524365E-22
-0.9026700E+00 -0.3609094E-22
-0.9021600E+00 -0.3695841E-22
-0.9016500E+00 -0.3784653E-22
-0.9011400E+00 -0.3875579E-22
-0.9006300E+00 -0.3968669E-22
-0.9001200E+00 -0.4063973E-22
-0.8996100E+00 -0.4161544E-22
-0.8991000E+00 -0.4261435E-22
-0.8985900E+00 -0.4363701E-22
-0.8980800E+00 -0.4468398E-22
-0.8975700E+00 -0.4575584E-22
-0.8970600E+00 -0.4685315E-22
-0.8965500E+00 -0.4797654E-22
-0.8960400E+00 -0.4912660E-22
-0.8955300E+00 -0.5030396E-22
-0.8950200E+00 -0.5150928E-22
-0.8945100E+00 -0.5274319E-22
-0.8940000E+00 -0.5400639E-22
-0.8934900E+00 -0.5529955E-22
-0.8929800E+00 -0.5662337E-22
-0.8924700E+00 -0.5797858E-22
-0.8919600E+00 -0.5936592E-22
-0.8914500E+00 -0.6078614E-22
-0.8909400E+00 -0.6224001E-22
-0.8904300E+00 -0.6372832E-22
-0.8899200E+00 -0.6525189E-22
-0.8894100E+00 -0.6681152E-22
-0.8889000E+00 -0.6840808E-22
-0.8883900E+00 -0.7004242E-22
-0.8878800E+00 -0.7171544E-22
-0.8873700E+00 -0.7342804E-22
-0.8868600E+00 -0.7518114E-22
-0.8863500E+00 -0.7697569E-22
-0.8858400E+00 -0.7881267E-22
-0.8853300E+00 -0.8069307E-22
-0.8848200E+00 -0.8261789E-22
-0.8843100E+00 -0.8458820E-22
-0.8838000E+00 -0.8660504E-22
-0.8832900E+00 -0.8866950E-22
-0.8827800E+00 -0.9078270E-22
-0.8822700E+00 -0.9294578E-22
-0.8817600E+00 -0.9515989E-22
-0.8812500E+00 -0.9742625E-22
-0.8807400E+00 -0.9974605E-22
-0.8802300E+00 -0.1021206E-21
-0.8797200E+00 -0.1045510E-21
-0.8792100E+00 -0.1070388E-21
-0.8787000E+00 -0.1095852E-21
-0.8781900E+00 -0.1121916E-21
-0.8776800E+00 -0.1148594E-21
-0.8771700E+00 -0.1175900E-21
-0.8766600E+00 -0.1203849E-21
-0.8761500E+00 -0.1232455E-21
-0.8756400E+00 -0.1261735E-21
-0.8751300E+00 -0.1291704E-21
-0.8746200E+00 -0.1322378E-21
-0.8741100E+00 -0.1353773E-21
-0.8736000E+00 -0.1385906E-21
-0.8730900E+00 -0.1418794E-21
-0.8725800E+00 -0.1452455E-21
-0.8720700E+00 -0.1486907E-21
-0.8715600E+00 -0.1522168E-21
-0.8710500E+00 -0.1558257E-21
-0.8705400E+00 -0.1595194E-21
-0.8700300E+00 -0.1632997E-21
-0.8695200E+00 -0.1671687E-21
-0.8690100E+00 -0.1711286E-21
-0.8685000E+00 -0.1751813E-21
-0.8679900E+00 -0.1793290E-21
-0.8674800E+00 -0.1835740E-21
-0.8669700E+00 -0.1879185E-21
-0.8664600E+00 -0.1923649E-21
-0.8659500E+00 -0.1969154E-21
-0.8654400E+00 -0.2015725E-21
-0.8649300E+00 -0.2063386E-21
-0.8644200E+00 -0.2112164E-21
-0.8639100E+00 -0.2162083E-21
-0.8634000E+00 -0.2213171E-21
-0.8628900E+00 -0.2265454E-21
-0.8623800E+00 -0.2318959E-21
-0.8618700E+00 -0.2373716E-21
-0.8613600E+00 -0.2429753E-21
-0.8608500E+00 -0.2487100E-21
-0.8603400E+00 -0.2545788E-21
-0.8598300E+00 -0.2605846E-21
-0.8593200E+00 -0.2667307E-21
-0.8588100E+00 -0.2730204E-21
-0.8583000E+00 -0.2794569E-21
-0.8577900E+00 -0.2860436E-21
-0.8572800E+00 -0.2927841E-21
-0.8567700E+00 -0.2996818E-21
-0.8562600E+00 -0.3067405E-21
-0.8557500E+00 -0.3139637E-21
-0.8552400E+00 -0.3213554E-21
-0.8547300E+00 -0.3289194E-21
-0.8542200E+00 -0.3366597E-21
-0.8537100E+00 -0.3445804E-21
-0.8532000E+00 -0.3526855E-21
-0.8526900E+00 -0.3609795E-21
-0.8521800E+00 -0.3694666E-21
-0.8516700E+00 -0.3781512E-21
-0.8511600E+00 -0.3870379E-21
-0.8506500E+00 -0.3961314E-21
-0.8501400E+00 -0.4054365E-21
-0.8496300E+00 -0.4149579E-21
-0.8491200E+00 -0.4247007E-21
-0.8486100E+00 -0.4346700E-21
-0.8481000E+00 -0.4448710E-21
-0.8475900E+00 -0.4553090E-21
-0.8470800E+00 -0.4659895E-21
-0.8465700E+00 -0.4769180E-21
-0.8460600E+00 -0.4881003E-21
-0.8455500E+00 -0.4995421E-21
-0.8450400E+00 -0.5112495E-21
-0.8445300E+00 -0.5232285E-21
-0.8440200E+00 -0.5354854E-21
-0.8435100E+00 -0.5480266E-21
-0.8430000E+00 -0.5608586E-21
-0.8424900E+00 -0.5739880E-21
-0.8419800E+00 -0.5874217E-21
-0.8414700E+00 -0.6011667E-21
-0.8409600E+00 -0.6152300E-21
-0.8404500E+00 -0.6296190E-21
-0.8399400E+00 -0.6443412E-21
-0.8394300E+00 -0.6594042E-21
-0.8389200E+00 -0.6748158E-21
-0.8384100E+00 -0.6905839E-21
-0.8379000E+00 -0.7067168E-21
-0.8373900E+00 -0.7232227E-21
-0.8368800E+00 -0.7401103E-21
-0.8363700E+00 -0.7573882E-21
-0.8358600E+00 -0.7750654E-21
-0.8353500E+00 -0.7931510E-21
-0.8348400E+00 -0.8116544E-21
-0.8343300E+00 -0.8305850E-21
-0.8338200E+00 -0.8499527E-21
-0.8333100E+00 -0.8697675E-21
-0.8328000E+00 -0.8900396E-21
-0.8322900E+00 -0.9107794E-21
-0.8317800E+00 -0.9319977E-21
-0.8312700E+00 -0.9537053E-21
-0.8307600E+00 -0.9759135E-21
-0.8302500E+00 -0.9986336E-21
-0.8297400E+00 -0.1021877E-20
-0.8292300E+00 -0.1045656E-20
-0.8287200E+00 -0.1069983E-20
-0.8282100E+00 -0.1094871E-20
-0.8277000E+00 -0.1120331E-20
-0.8271900E+00 -0.1146377E-20
-0.8266800E+00 -0.1173023E-20
-0.8261700E+00 -0.1200282E-20
-0.8256600E+00 -0.1228168E-20
-0.8251500E+00 -0.1256695E-20
-0.8246400E+00 -0.1285878E-20
-0.8241300E+00 -0.1315731E-20
-0.8236200E+00 -0.1346271E-20
-0.8231100E+00 -0.1377513E-20
-0.8226000E+00 -0.1409472E-20
-0.8220900E+00 -0.1442165E-20
-0.8215800E+00 -0.1475609E-20
-0.8210700E+00 -0.1509820E-20
-0.8205600E+00 -0.1544816E-20
-0.8200500E+00 -0.1580616E-20
-0.8195400E+00 -0.1617236E-20
-0.8190300E+00 -0.1654697E-20
-0.8185200E+00 -0.1693016E-20
-0.8180100E+00 -0.1732214E-20
-0.8175000E+00 -0.1772309E-20
-0.8169900E+00 -0.1813324E-20
-0.8164800E+00 -0.1855278E-20
-0.8159700E+00 -0.1898193E-20
-0.8154600E+00 -0.1942090E-20
-0.8149500E+00 -0.1986991E-20
-0.8144400E+00 -0.2032921E-20
-0.8139300E+00 -0.2079901E-20
-0.8134200E+00 -0.2127955E-20
-0.8129100E+00 -0.2177108E-20
-0.8124000E+00 -0.2227385E-20
-0.8118900E+00 -0.2278811E-20
-0.8113800E+00 -0.2331412E-20
-0.8108700E+00 -0.2385215E-20
-0.8103600E+00 -0.2440247E-20
-0.8098500E+00 -0.2496535E-20
-0.8093400E+00 -0.2554109E-20
-0.8088300E+00 -0.2612996E-20
-0.8083200E+00 -0.2673227E-20
-0.8078100E+00 -0.2734832E-20
-0.8073000E+00 -0.2797843E-20
-0.8067900E+00 -0.2862290E-20
-0.8062800E+00 -0.2928207E-20
-0.8057700E+00 -0.2995626E-20
-0.8052600E+00 -0.3064581E-20
-0.8047500E+00 -0.3135107E-20
-0.8042400E+00 -0.3207239E-20
-0.8037300E+00 -0.3281014E-20
-0.8032200E+00 -0.3356468E-20
-0.8027100E+00 -0.3433639E-20
-0.8022000E+00 -0.3512566E-20
-0.8016900E+00 -0.3593289E-20
-0.8011800E+00 -0.3675847E-20
-0.8006700E+00 -0.3760282E-20
-0.8001600E+00 -0.3846637E-20
-0.7996500E+00 -0.3934954E-20
-0.7991400E+00 -0.4025278E-20
-0.7986300E+00 -0.4117653E-20
-0.7981200E+00 -0.4212126E-20
-0.7976100E+00 -0.4308745E-20
-0.7971000E+00 -0.4407556E-20
-0.7965900E+00 -0.4508609E-20
-0.7960800E+00 -0.4611955E-20
-0.7955700E+00 -0.4717645E-20
-0.7950600E+00 -0.4825732E-20
-0.7945500E+00 -0.4936269E-20
-0.7940400E+00 -0.5049312E-20
-0.7935300E+00 -0.5164917E-20
-0.7930200E+00 -0.5283142E-20
-0.7925100E+00 -0.5404044E-20
-0.7920000E+00 -0.5527684E-20
-0.7914900E+00 -0.5654124E-20
-0.7909800E+00 -0.5783425E-20
-0.7904700E+00 -0.5915653E-20
-0.7899600E+00 -0.6050872E-20
-0.7894500E+00 -0.6189150E-20
-0.7889400E+00 -0.6330555E-20
-0.7884300E+00 -0.6475157E-20
-0.7879200E+00 -0.6623028E-20
-0.7874100E+00 -0.6774239E-20
-0.7869000E+00 -0.6928867E-20
-0.7863900E+00 -0.7086988E-20
-0.7858800E+00 -0.7248679E-20
-0.7853700E+00 -0.7414021E-20
-0.7848600E+00 -0.7583093E-20
-0.7843500E+00 -0.7755981E-20
-0.7838400E+00 -0.7932770E-20
-0.7833300E+00 -0.8113545E-20
-0.7828200E+00 -0.8298396E-20
-0.7823100E+00 -0.8487415E-20
-0.7818000E+00 -0.8680693E-20
-0.7812900E+00 -0.8878327E-20
-0.7807800E+00 -0.9080413E-20
-0.7802700E+00 -0.9287050E-20
-0.7797600E+00 -0.9498339E-20
-0.7792500E+00 -0.9714384E-20
-0.7787400E+00 -0.9935291E-20
-0.7782300E+00 -0.1016117E-19
-0.7777200E+00 -0.1039212E-19
-0.7772100E+00 -0.1062828E-19
-0.7767000E+00 -0.1086974E-19
-0.7761900E+00 -0.1111662E-19
-0.7756800E+00 -0.1136906E-19
-0.7751700E+00 -0.1162717E-19
-0.7746600E+00 -0.1189107E-19
-0.7741500E+00 -0.1216090E-19
-0.7736400E+00 -0.1243679E-19
-0.7731300E+00 -0.1271887E-19
-0.7726200E+00 -0.1300729E-19
-0.7721100E+00 -0.1330217E-19
-0.7716000E+00 -0.1360366E-19
-0.7710900E+00 -0.1391192E-19
-0.7705800E+00 -0.1422708E-19
-0.7700700E+00 -0.1454931E-19
-0.7695600E+00 -0.1487876E-19
-0.7690500E+00 -0.1521559E-19
-0.7685400E+00 -0.1555996E-19
-0.7680300E+00 -0.1591205E-19
-0.7675200E+00 -0.1627201E-19
-0.7670100E+00 -0.1664003E-19
-0.7665000E+00 -0.1701628E-19
-0.7659900E+00 -0.1740095E-19
-0.7654800E+00 -0.1779422E-19
-0.7649700E+00 -0.1819628E-19
-0.7644600E+00 -0.1860733E-19
-0.7639500E+00 -0.1902757E-19
-0.7634400E+00 -0.1945719E-19
-0.7629300E+00 -0.1989641E-19
-0.7624200E+00 -0.2034544E-19
-0.7619100E+00 -0.2080449E-19
-0.7614000E+00 -0.2127379E-19
-0.7608900E+00 -0.2175356E-19
-0.7603800E+00 -0.2224403E-19
-0.7598700E+00 -0.2274545E-19
-0.7593600E+00 -0.2325804E-19
-0.7588500E+00 -0.2378207E-19
-0.7583400E+00 -0.2431778E-19
-0.7578300E+00 -0.2486542E-19
-0.7573200E+00 -0.2542527E-19
-0.7568100E+00 -0.2599759E-19
-0.7563000E+00 -0.2658265E-19
-0.7557900E+00 -0.2718074E-19
-0.7552800E+00 -0.2779214E-19
-0.7547700E+00 -0.2841715E-19
-0.7542600E+00 -0.2905606E-19
-0.7537500E+00 -0.2970918E-19
-0.7532400E+00 -0.3037683E-19
-0.7527300E+00 -0.3105932E-19
-0.7522200E+00 -0.3175698E-19
-0.7517100E+00 -0.3247013E-19
-0.7512000E+00 -0.3319914E-19
-0.7506900E+00 -0.3394433E-19
-0.7501800E+00 -0.3470606E-19
-0.7496700E+00 -0.3548470E-19
-0.7491600E+00 -0.3628063E-19
-0.7486500E+00 -0.3709421E-19
-0.7481400E+00 -0.3792583E-19
-0.7476300E+00 -0.3877589E-19
-0.7471200E+00 -0.3964480E-19
-0.7466100E+00 -0.4053296E-19
-0.7461000E+00 -0.4144079E-19
-0.7455900E+00 -0.4236874E-19
-0.7450800E+00 -0.4331723E-19
-0.7445700E+00 -0.4428672E-19
-0.7440600E+00 -0.4527767E-19
-0.7435500E+00 -0.4629055E-19
-0.7430400E+00 -0.4732583E-19
-0.7425300E+00 -0.4838401E-19
-0.7420200E+00 -0.4946559E-19
-0.7415100E+00 -0.5057109E-19
-0.7410000E+00 -0.5170101E-19
-0.7404900E+00 -0.5285591E-19
-0.7399800E+00 -0.5403632E-19
-0.7394700E+00 -0.5524280E-19
-0.7389600E+00 -0.5647592E-19
-0.7384500E+00 -0.5773626E-19
-0.7379400E+00 -0.5902442E-19
-0.7374300E+00 -0.6034101E-19
-0.7369200E+00 -0.6168664E-19
-0.7364100E+00 -0.6306195E-19
-0.7359000E+00 -0.6446758E-19
-0.7353900E+00 -0.6590420E-19
-0.7348800E+00 -0.6737248E-19
-0.7343700E+00 -0.6887311E-19
-0.7338600E+00 -0.7040679E-19
-0.7333500E+00 -0.7197425E-19
-0.7328400E+00 -0.7357621E-19
-0.7323300E+00 -0.7521344E-19
-0.7318200E+00 -0.7688670E-19
-0.7313100E+00 -0.7859677E-19
-0.7308000E+00 -0.8034445E-19
-0.7302900E+00 -0.8213058E-19
-0.7297800E+00 -0.8395596E-19
-0.7292700E+00 -0.8582147E-19
-0.7287600E+00 -0.8772798E-19
-0.7282500E+00 -0.8967638E-19
-0.7277400E+00 -0.9166757E-19
-0.7272300E+00 -0.9370248E-19
-0.7267200E+00 -0.9578208E-19
-0.7262100E+00 -0.9790732E-19
-0.7257000E+00 -0.1000792E-18
-0.7251900E+00 -0.1022987E-18
-0.7246800E+00 -0.1045669E-18
-0.7241700E+00 -0.1068849E-18
-0.7236600E+00 -0.1092537E-18
-0.7231500E+00 -0.1116744E-18
-0.7226400E+00 -0.1141481E-18
-0.7221300E+00 -0.1166760E-18
-0.7216200E+00 -0.1192593E-18
-0.7211100E+00 -0.1218992E-18
-0.7206000E+00 -0.1245968E-18
-0.7200900E+00 -0.1273535E-18
-0.7195800E+00 -0.1301705E-18
-0.7190700E+00 -0.1330491E-18
-0.7185600E+00 -0.1359907E-18
-0.7180500E+00 -0.1389965E-18
-0.7175400E+00 -0.1420681E-18
-0.7170300E+00 -0.1452068E-18
-0.7165200E+00 -0.1484140E-18
-0.7160100E+00 -0.1516913E-18
-0.7155000E+00 -0.1550401E-18
-0.7149900E+00 -0.1584620E-18
-0.7144800E+00 -0.1619586E-18
-0.7139700E+00 -0.1655314E-18
-0.7134600E+00 -0.1691821E-18
-0.7129500E+00 -0.1729124E-18
-0.7124400E+00 -0.1767241E-18
-0.7119300E+00 -0.1806187E-18
-0.7114200E+00 -0.1845982E-18
-0.7109100E+00 -0.1886644E-18
-0.7104000E+00 -0.1928191E-18
-0.7098900E+00 -0.1970642E-18
-0.7093800E+00 -0.2014017E-18
-0.7088700E+00 -0.2058336E-18
-0.7083600E+00 -0.2103619E-18
-0.7078500E+00 -0.2149886E-18
-0.7073400E+00 -0.2197160E-18
-0.7068300E+00 -0.2245461E-18
-0.7063200E+00 -0.2294813E-18
-0.7058100E+00 -0.2345236E-18
-0.7053000E+00 -0.2396755E-18
-0.7047900E+00 -0.2449393E-18
-0.7042800E+00 -0.2503175E-18
-0.7037700E+00 -0.2558124E-18
-0.7032600E+00 -0.2614266E-18
-0.7027500E+00 -0.2671626E-18
-0.7022400E+00 -0.2730231E-18
-0.7017300E+00 -0.2790107E-18
-0.7012200E+00 -0.2851281E-18
-0.7007100E+00 -0.2913782E-18
-0.7002000E+00 -0.2977638E-18
-0.6996900E+00 -0.3042877E-18
-0.6991800E+00 -0.3109529E-18
-0.6986700E+00 -0.3177625E-18
-0.6981600E+00 -0.3247195E-18
-0.6976500E+00 -0.3318270E-18
-0.6971400E+00 -0.3390884E-18
-0.6966300E+00 -0.3465069E-18
-0.6961200E+00 -0.3540859E-18
-0.6956100E+00 -0.3618287E-18
-0.6951000E+00 -0.3697388E-18
-0.6945900E+00 -0.3778200E-18
-0.6940800E+00 -0.3860757E-18
-0.6935700E+00 -0.3945098E-18
-0.6930600E+00 -0.4031260E-18
-0.6925500E+00 -0.4119283E-18
-0.6920400E+00 -0.4209206E-18
-0.6915300E+00 -0.4301069E-18
-0.6910200E+00 -0.4394915E-18
-0.6905100E+00 -0.4490784E-18